<?xml version="1.0"?>
<VTKFile type="UnstructuredGrid" version="1.0" byte_order="LittleEndian">
  <UnstructuredGrid>
    <Piece NumberOfPoints="63" NumberOfCells="48">
      <PointData Scalars="scalars">
        <DataArray type="Float32" Name="cp1" format="ascii">
-0.154276 -0.242418 -0.288209 -0.156875 0.0413815 0.115758 0.134073 -0.155736 -0.232628 -0.278262 -0.173023 0.0197246 0.113363 0.133802 -0.142847 -0.209282 -0.253908 -0.153681 0.0210749 0.111208 0.133553 -0.090874 -0.140497 -0.190414 -0.110785 0.011024 0.087381 0.130111 -0.0134213 -0.0674149 -0.154603 -0.153052 -0.0884857 -0.0151988 0.0143886 0.0134981 -0.0376897 -0.13316 -0.162967 -0.122666 -0.0442809 -0.0158782 0.0363473 -0.0143026 -0.0956946 -0.0823707 -0.0357181 0.0359985 0.0840302 0.0873584 0.00876296 -0.0943466 -0.0769697 -0.0295814 0.0371726 0.0807045 0.108296 0.0127358 -0.10613 -0.0738902 -0.0325675 0.0302718 0.0831803
        </DataArray>
        <DataArray type="Float32" Name="cp2" format="ascii">
-0.135541 -0.224665 -0.267838 -0.144275 0.0369234 0.10628 0.123729 -0.136936 -0.214713 -0.258171 -0.159392 0.01715 0.104127 0.123504 -0.124551 -0.192203 -0.234834 -0.141321 0.0186113 0.10266 0.123342 -0.0752725 -0.126653 -0.172967 -0.10006 0.0128596 0.0858961 0.122543 -0.014325 -0.0599319 -0.135162 -0.129985 -0.0634568 0.0100655 0.0395148 0.0145687 -0.0305462 -0.117166 -0.139977 -0.0926593 -0.013209 0.016106 0.0512452 -0.00400758 -0.0876662 -0.0760269 -0.0271823 0.0443331 0.0867582 0.0938947 0.0152057 -0.0884882 -0.0711873 -0.0214586 0.0448471 0.0847024 0.112367 0.0178753 -0.100392 -0.0681591 -0.0218637 0.0403571 0.0884003
        </DataArray>
        <DataArray type="Float32" Name="cp3" format="ascii">
-0.114216 -0.204079 -0.244567 -0.128984 0.0348411 0.0989525 0.115471 -0.115541 -0.193993 -0.235197 -0.143032 0.0169845 0.0970241 0.115276 -0.103686 -0.172372 -0.212922 -0.126216 0.0185277 0.0960711 0.115129 -0.0570283 -0.110211 -0.15281 -0.0866723 0.0164294 0.085063 0.116062 -0.0137782 -0.0508784 -0.114235 -0.105932 -0.0395602 0.0320312 0.0604831 0.0168409 -0.022006 -0.0997185 -0.116066 -0.0640719 0.0140474 0.0432721 0.0686023 0.00875185 -0.0769303 -0.0670007 -0.0173066 0.0524311 0.0895472 0.102607 0.0239816 -0.0800871 -0.0629661 -0.0121734 0.0524361 0.088594 0.11857 0.025338 -0.0921111 -0.0601523 -0.0105216 0.0498997 0.0930441
        </DataArray>
      </PointData>
      <Points>
        <DataArray type="Float32" Name="network7" NumberOfComponents="3" format="ascii">
80.0 0.0 0.0
81.5 0.0 0.0
84.5 0.0 0.0
86.0 0.0 0.0
140.0 0.0 10.0
248.0 0.0 30.0
302.0 0.0 40.0
80.0 3.2218 0.0
81.5 3.2182 0.0
84.5 3.2108 0.0
86.0 3.2072 0.0
140.0 2.5152 10.0
248.0 1.1313 30.0
302.0 0.4393 40.0
80.0 11.0 0.0
81.5 10.9875 0.0
84.5 10.9625 0.0
86.0 10.95 0.0
140.0 8.5875 10.0
248.0 3.8625 30.0
302.0 1.5 40.0
80.0 18.7782 0.0
81.5 18.7568 0.0
84.5 18.7142 0.0
86.0 18.6928 0.0
140.0 14.6598 10.0
248.0 6.5937 30.0
302.0 2.5607 40.0
80.0 22.0 0.0
81.5 21.975 0.0
84.5 21.925 0.0
86.0 21.9 0.0
140.0 17.175 10.0
248.0 7.725 30.0
302.0 3.0 40.0
80.0 22.0 0.5638
81.5 21.975 0.5638
84.5 21.925 0.5638
86.0 21.9 0.5638
140.0 17.175 10.4613
248.0 7.725 30.2563
302.0 3.0 40.1538
80.0 22.0 1.925
81.5 21.975 1.925
84.5 21.925 1.925
86.0 21.9 1.925
140.0 17.175 11.575
248.0 7.725 30.875
302.0 3.0 40.525
80.0 22.0 3.2862
81.5 21.975 3.2862
84.5 21.925 3.2862
86.0 21.9 3.2862
140.0 17.175 12.6887
248.0 7.725 31.4937
302.0 3.0 40.8962
80.0 22.0 3.85
81.5 21.975 3.85
84.5 21.925 3.85
86.0 21.9 3.85
140.0 17.175 13.15
248.0 7.725 31.75
302.0 3.0 41.05
        </DataArray>
      </Points>
      <Cells>
        <DataArray type="Int32" Name="connectivity" format="ascii">
0 7 8 1
1 8 9 2
2 9 10 3
3 10 11 4
4 11 12 5
5 12 13 6
7 14 15 8
8 15 16 9
9 16 17 10
10 17 18 11
11 18 19 12
12 19 20 13
14 21 22 15
15 22 23 16
16 23 24 17
17 24 25 18
18 25 26 19
19 26 27 20
21 28 29 22
22 29 30 23
23 30 31 24
24 31 32 25
25 32 33 26
26 33 34 27
28 35 36 29
29 36 37 30
30 37 38 31
31 38 39 32
32 39 40 33
33 40 41 34
35 42 43 36
36 43 44 37
37 44 45 38
38 45 46 39
39 46 47 40
40 47 48 41
42 49 50 43
43 50 51 44
44 51 52 45
45 52 53 46
46 53 54 47
47 54 55 48
49 56 57 50
50 57 58 51
51 58 59 52
52 59 60 53
53 60 61 54
54 61 62 55
        </DataArray>
        <DataArray type="Int32" Name="offsets" format="ascii">
4 8 12 16 20 24 28 32 36 40 44 48 52 56 60 64 68 72 76 80 84 88 92 96 100 104 108 112 116 120 124 128 132 136 140 144 148 152 156 160 164 168 172 176 180 184 188 192
        </DataArray>
        <DataArray type="Int32" Name="types" format="ascii">
9 9 9 9 9 9 9 9 9 9 9 9 9 9 9 9 9 9 9 9 9 9 9 9 9 9 9 9 9 9 9 9 9 9 9 9 9 9 9 9 9 9 9 9 9 9 9 9
        </DataArray>
      </Cells>
    </Piece>
  </UnstructuredGrid>
</VTKFile>
