<?xml version="1.0"?>
<VTKFile type="UnstructuredGrid" version="1.0" byte_order="LittleEndian">
  <UnstructuredGrid>
    <Piece NumberOfPoints="315" NumberOfCells="272">
      <PointData Scalars="scalars">
        <DataArray type="Float32" Name="cp1" format="ascii">
-1.05727 -0.358256 0.141011 -0.0866867 -0.189825 -0.28769 -0.373134 -0.441598 -0.491752 -0.525086 -0.543875 -0.550278 -0.546219 -0.533048 -0.511372 -0.483082 -0.452521 -0.422827 -0.394451 -0.367048 -0.340289 -0.313853 -0.287491 -0.260781 -0.233564 -0.205947 -0.177656 -0.148677 -0.119779 -0.0928839 -0.0701883 -0.0547179 -0.0370887 -0.314136 -0.683874 -1.62871 -0.837903 -0.201998 -0.251766 -0.268891 -0.296253 -0.326798 -0.355984 -0.381123 -0.401023 -0.415083 -0.42295 -0.424587 -0.420153 -0.40977 -0.394347 -0.376022 -0.356466 -0.336295 -0.31571 -0.294944 -0.274215 -0.253658 -0.233357 -0.21364 -0.194923 -0.17733 -0.160929 -0.14639 -0.135483 -0.128727 -0.126919 -0.112641 -0.22293 -0.344785 -2.19926 -1.23372 -0.454255 -0.399229 -0.34198 -0.304252 -0.280114 -0.265797 -0.25854 -0.25607 -0.256394 -0.257771 -0.258866 -0.258843 -0.257123 -0.253388 -0.247789 -0.240569 -0.231987 -0.222396 -0.212309 -0.202235 -0.192597 -0.183833 -0.176498 -0.170787 -0.167302 -0.167008 -0.169481 -0.175059 -0.18372 -0.194941 -0.223173 -0.349525 -0.542362 -1.85203 -1.07097 -0.383884 -0.370612 -0.315655 -0.277018 -0.248492 -0.227117 -0.211113 -0.199197 -0.190467 -0.18413 -0.179417 -0.175717 -0.17254 -0.169436 -0.166199 -0.162781 -0.159102 -0.155214 -0.151344 -0.147685 -0.144536 -0.142205 -0.140926 -0.140283 -0.140815 -0.144312 -0.14964 -0.15597 -0.164239 -0.174733 -0.191948 -0.131629 -0.0415456 -2.09741 -1.18701 -0.359181 -0.35812 -0.293971 -0.253741 -0.226264 -0.206311 -0.191269 -0.179604 -0.17041 -0.16308 -0.157104 -0.152089 -0.147757 -0.143824 -0.140147 -0.136718 -0.133425 -0.130243 -0.127254 -0.124464 -0.122066 -0.119955 -0.118437 -0.117687 -0.117362 -0.118464 -0.120866 -0.124238 -0.129485 -0.1371 -0.141722 0.0885869 0.438073 -3.46361 -1.82812 -0.496858 -0.450668 -0.356086 -0.295604 -0.253831 -0.223534 -0.200908 -0.183659 -0.17023 -0.159586 -0.151027 -0.144019 -0.138165 -0.133161 -0.128721 -0.124752 -0.121236 -0.118022 -0.114898 -0.112008 -0.109792 -0.107756 -0.106018 -0.105213 -0.104802 -0.104855 -0.105713 -0.107943 -0.111552 -0.115082 -0.138056 -0.129565 -0.129618 -4.5669 -2.40905 -0.657582 -0.539163 -0.429397 -0.353195 -0.297356 -0.255412 -0.2234 -0.198685 -0.179407 -0.164226 -0.152181 -0.142522 -0.134669 -0.128197 -0.122689 -0.117911 -0.113791 -0.110217 -0.106991 -0.104042 -0.101746 -0.0998283 -0.0980821 -0.0967334 -0.0956346 -0.0948746 -0.0943794 -0.0944875 -0.0949648 -0.0941063 -0.0934807 -0.0920958 -0.0887962 -3.94217 -2.13968 -0.608233 -0.561958 -0.450341 -0.372303 -0.314207 -0.269591 -0.234666 -0.207068 -0.185196 -0.167815 -0.153975 -0.142915 -0.133998 -0.126749 -0.120748 -0.115492 -0.110896 -0.107269 -0.104335 -0.101567 -0.0991412 -0.0970818 -0.0952303 -0.0935847 -0.0921306 -0.090946 -0.0898046 -0.0886954 -0.0878427 -0.086997 -0.0865292 -0.0866915 -0.086742 -2.98193 -1.54791 -0.367393 -0.546451 -0.443042 -0.368495 -0.312144 -0.268464 -0.234054 -0.206746 -0.185036 -0.167712 -0.153873 -0.142809 -0.133882 -0.126628 -0.120736 -0.115351 -0.110502 -0.107114 -0.104356 -0.101469 -0.0989592 -0.0968636 -0.095014 -0.0933414 -0.0918543 -0.0906543 -0.0895793 -0.0885666 -0.0877394 -0.0870553 -0.0864479 -0.0862513 -0.0863577
        </DataArray>
        <DataArray type="Float32" Name="cp2" format="ascii">
-1.67871 -0.772047 -0.154857 -0.430262 -0.516456 -0.591741 -0.65098 -0.691536 -0.714068 -0.721517 -0.716712 -0.701956 -0.679098 -0.649255 -0.612759 -0.571363 -0.529408 -0.489831 -0.452821 -0.417809 -0.38429 -0.351812 -0.320032 -0.288375 -0.256642 -0.224989 -0.193019 -0.160631 -0.128643 -0.0990608 -0.0740531 -0.0566761 -0.0415099 -0.344333 -0.74593 -2.05792 -1.13176 -0.401373 -0.467689 -0.478112 -0.496041 -0.515378 -0.532105 -0.544143 -0.550836 -0.551867 -0.547092 -0.536631 -0.520747 -0.499628 -0.474278 -0.44694 -0.419236 -0.391711 -0.364489 -0.33773 -0.311585 -0.286139 -0.261399 -0.237689 -0.215454 -0.19474 -0.175561 -0.158634 -0.145828 -0.137626 -0.134819 -0.126658 -0.234262 -0.347045 -2.40089 -1.36431 -0.529059 -0.484405 -0.425032 -0.387359 -0.3637 -0.349643 -0.342029 -0.338358 -0.33655 -0.334931 -0.332288 -0.327979 -0.321632 -0.313098 -0.302701 -0.290768 -0.277644 -0.263749 -0.249631 -0.235824 -0.222763 -0.210879 -0.20074 -0.192535 -0.18684 -0.184604 -0.185345 -0.189394 -0.196636 -0.206332 -0.217616 -0.285313 -0.378749 -2.03578 -1.17931 -0.435664 -0.425574 -0.368859 -0.329515 -0.300673 -0.279104 -0.262853 -0.250495 -0.241071 -0.23378 -0.227718 -0.222283 -0.217081 -0.211695 -0.205991 -0.199976 -0.193671 -0.187212 -0.180863 -0.174872 -0.169558 -0.165209 -0.162102 -0.159812 -0.158892 -0.161212 -0.165569 -0.17111 -0.178802 -0.188879 -0.20748 -0.210695 -0.213185 -2.23911 -1.27623 -0.407021 -0.408264 -0.341914 -0.300442 -0.272196 -0.251615 -0.235884 -0.223338 -0.213088 -0.204577 -0.197177 -0.190504 -0.184347 -0.178462 -0.172779 -0.167277 -0.161908 -0.156719 -0.151797 -0.147193 -0.143114 -0.139413 -0.136469 -0.13449 -0.133116 -0.133422 -0.135261 -0.138266 -0.143314 -0.151002 -0.157043 -0.047762 0.120922 -3.59764 -1.91736 -0.548715 -0.501899 -0.402542 -0.338907 -0.294994 -0.263148 -0.239279 -0.220927 -0.206443 -0.194722 -0.185025 -0.176805 -0.169635 -0.163247 -0.157415 -0.152025 -0.147077 -0.142453 -0.137935 -0.133694 -0.130217 -0.126984 -0.12413 -0.122309 -0.120944 -0.120083 -0.120027 -0.121299 -0.123789 -0.125936 -0.137153 -0.127023 -0.116348 -4.77794 -2.53628 -0.717428 -0.591475 -0.476675 -0.396714 -0.337954 -0.293688 -0.259766 -0.233456 -0.212809 -0.196397 -0.183211 -0.17247 -0.163553 -0.156024 -0.149453 -0.143589 -0.138384 -0.133738 -0.129442 -0.12544 -0.122145 -0.119264 -0.116595 -0.114378 -0.112452 -0.110907 -0.10969 -0.109196 -0.109213 -0.107979 -0.107656 -0.107136 -0.105909 -4.10841 -2.24538 -0.661866 -0.61405 -0.497715 -0.416016 -0.354953 -0.307871 -0.270843 -0.241437 -0.217996 -0.199225 -0.184132 -0.171916 -0.161908 -0.153619 -0.146597 -0.140303 -0.134679 -0.130063 -0.126162 -0.122438 -0.119084 -0.116126 -0.113413 -0.11097 -0.108782 -0.106929 -0.105199 -0.103598 -0.102349 -0.101192 -0.100372 -0.100284 -0.100155 -3.11771 -1.63493 -0.413679 -0.597824 -0.489977 -0.411941 -0.352735 -0.306654 -0.270184 -0.241093 -0.21782 -0.199112 -0.18402 -0.17179 -0.16176 -0.153462 -0.146556 -0.140119 -0.134219 -0.12985 -0.126135 -0.122288 -0.118848 -0.115852 -0.113143 -0.110677 -0.108463 -0.106597 -0.104935 -0.103429 -0.102196 -0.101197 -0.100385 -0.100005 -0.0999887
        </DataArray>
        <DataArray type="Float32" Name="cp3" format="ascii">
-2.4019 -1.25736 -0.499274 -0.81848 -0.878419 -0.923074 -0.949339 -0.956426 -0.946913 -0.92506 -0.894056 -0.856173 -0.813038 -0.765416 -0.713277 -0.658171 -0.604383 -0.5546 -0.508721 -0.46593 -0.42553 -0.386931 -0.349684 -0.313059 -0.276808 -0.241139 -0.205522 -0.169771 -0.134746 -0.102535 -0.0752692 -0.0560257 -0.0432669 -0.371458 -0.804439 -2.53433 -1.461 -0.625158 -0.705834 -0.705513 -0.710346 -0.715265 -0.716778 -0.713409 -0.704998 -0.691452 -0.672779 -0.649206 -0.62106 -0.588565 -0.552785 -0.51605 -0.479904 -0.444801 -0.410774 -0.3779 -0.346254 -0.31586 -0.286647 -0.258928 -0.233174 -0.209348 -0.187406 -0.16811 -0.153425 -0.143788 -0.139987 -0.137667 -0.242556 -0.346336 -2.60055 -1.49467 -0.603987 -0.571237 -0.509826 -0.472322 -0.449117 -0.435161 -0.42692 -0.421697 -0.417351 -0.412309 -0.405503 -0.396507 -0.38517 -0.371518 -0.356053 -0.339182 -0.321332 -0.302986 -0.284722 -0.267092 -0.250542 -0.235486 -0.222506 -0.211779 -0.20385 -0.199652 -0.198638 -0.201134 -0.20693 -0.215065 -0.203889 -0.214005 -0.206008 -2.22354 -1.29091 -0.490408 -0.483772 -0.425405 -0.385421 -0.356269 -0.334434 -0.31779 -0.304774 -0.294383 -0.285824 -0.278072 -0.270549 -0.262975 -0.254974 -0.246498 -0.237609 -0.228435 -0.219196 -0.21019 -0.20172 -0.194118 -0.187648 -0.182631 -0.178628 -0.176204 -0.177302 -0.180647 -0.185367 -0.192452 -0.202084 -0.221334 -0.333864 -0.498174 -2.38424 -1.3689 -0.458891 -0.462608 -0.394194 -0.351529 -0.322487 -0.301177 -0.284586 -0.270923 -0.259328 -0.249308 -0.240124 -0.231419 -0.223063 -0.214865 -0.20684 -0.198957 -0.191239 -0.183807 -0.176747 -0.170156 -0.16425 -0.158837 -0.154367 -0.151076 -0.148587 -0.148042 -0.149268 -0.151858 -0.156662 -0.164374 -0.169261 -0.231653 -0.32035 -3.72469 -2.00325 -0.600041 -0.55282 -0.448851 -0.382152 -0.33614 -0.302744 -0.277593 -0.258065 -0.242423 -0.229501 -0.218523 -0.208943 -0.200304 -0.192382 -0.185019 -0.178078 -0.171584 -0.165447 -0.159446 -0.153779 -0.148973 -0.144488 -0.14047 -0.137591 -0.135233 -0.133422 -0.132416 -0.13269 -0.134017 -0.13474 -0.129797 -0.119009 -0.0951018 -4.97879 -2.6574 -0.774389 -0.641021 -0.521354 -0.437745 -0.376146 -0.329615 -0.293824 -0.265946 -0.243949 -0.226314 -0.211989 -0.200163 -0.190175 -0.181577 -0.173932 -0.166968 -0.160663 -0.154931 -0.149552 -0.144485 -0.140176 -0.136322 -0.132719 -0.129624 -0.126862 -0.124525 -0.122578 -0.121477 -0.121031 -0.119424 -0.119409 -0.119769 -0.120615 -4.26468 -2.34473 -0.712179 -0.662915 -0.542054 -0.456821 -0.392878 -0.343395 -0.304311 -0.273133 -0.24815 -0.228011 -0.21168 -0.198317 -0.187224 -0.177897 -0.169855 -0.162522 -0.155866 -0.150257 -0.145385 -0.140698 -0.136412 -0.132548 -0.12897 -0.125724 -0.122799 -0.120274 -0.117954 -0.115859 -0.114213 -0.112744 -0.111572 -0.111231 -0.110909 -3.24557 -1.71687 -0.457207 -0.646055 -0.53395 -0.452546 -0.390574 -0.342155 -0.303671 -0.272831 -0.248021 -0.227946 -0.211611 -0.198222 -0.187091 -0.177751 -0.169828 -0.162334 -0.155378 -0.150021 -0.145342 -0.140528 -0.136152 -0.132249 -0.128674 -0.125409 -0.122465 -0.119929 -0.117676 -0.115675 -0.114033 -0.112718 -0.111703 -0.111138 -0.110997
        </DataArray>
      </PointData>
      <Points>
        <DataArray type="Float32" Name="network3" NumberOfComponents="3" format="ascii">
0.0 22.0 3.85
0.1174 22.0 4.402
0.5786 22.0 4.9642
1.381 22.0 5.5316
2.5191 22.0 6.0968
3.9842 22.0 6.6506
5.7646 22.0 7.1822
7.8458 22.0 7.6802
10.2099 22.0 8.1329
12.8366 22.0 8.5294
15.7026 22.0 8.8597
18.7823 22.0 9.1153
22.0479 22.0 9.2898
25.4698 22.0 9.3789
29.0172 22.0 9.3805
32.6535 22.0 9.2952
36.3314 22.0 9.1406
40.0392 22.0 8.9294
43.7445 22.0 8.6676
47.4155 22.0 8.3617
51.0207 22.0 8.0191
54.5291 22.0 7.6473
57.9109 22.0 7.2542
61.1374 22.0 6.8479
64.1813 22.0 6.4369
67.0171 22.0 6.0296
69.6211 22.0 5.6346
71.9715 22.0 5.2604
74.049 22.0 4.9154
75.8364 22.0 4.6077
77.319 22.0 4.3445
78.4848 22.0 4.1325
79.3243 22.0 3.9769
79.8307 22.0 3.8819
80.0 22.0 3.85
0.0 22.0 11.3407
0.1174 22.0 11.8119
0.5786 22.0 12.2918
1.381 22.0 12.7761
2.5191 22.0 13.2585
3.9842 22.0 13.7312
5.7646 22.0 14.1849
7.8458 22.0 14.61
10.2099 22.0 14.9964
12.8366 22.0 15.3349
15.7026 22.0 15.6168
18.7823 22.0 15.8349
22.0479 22.0 15.9839
25.4698 22.0 16.0599
29.0172 22.0 16.0613
32.6535 22.0 15.9885
36.3314 22.0 15.8566
40.0392 22.0 15.6763
43.7445 22.0 15.4528
47.4155 22.0 15.1918
51.0207 22.0 14.8993
54.5291 22.0 14.5819
57.9109 22.0 14.2464
61.1374 22.0 13.8996
64.1813 22.0 13.5488
67.0171 22.0 13.2011
69.6211 22.0 12.864
71.9715 22.0 12.5446
74.049 22.0 12.2501
75.8364 22.0 11.9875
77.319 22.0 11.7629
78.4848 22.0 11.5819
79.3243 22.0 11.4491
79.8307 22.0 11.368
80.0 22.0 11.3407
0.0 22.0 29.425
0.1174 22.0 29.701
0.5786 22.0 29.9821
1.381 22.0 30.2658
2.5191 22.0 30.5484
3.9842 22.0 30.8253
5.7646 22.0 31.0911
7.8458 22.0 31.3401
10.2099 22.0 31.5665
12.8366 22.0 31.7647
15.7026 22.0 31.9298
18.7823 22.0 32.0576
22.0479 22.0 32.1449
25.4698 22.0 32.1894
29.0172 22.0 32.1902
32.6535 22.0 32.1476
36.3314 22.0 32.0703
40.0392 22.0 31.9647
43.7445 22.0 31.8338
47.4155 22.0 31.6809
51.0207 22.0 31.5096
54.5291 22.0 31.3236
57.9109 22.0 31.1271
61.1374 22.0 30.924
64.1813 22.0 30.7184
67.0171 22.0 30.5148
69.6211 22.0 30.3173
71.9715 22.0 30.1302
74.049 22.0 29.9577
75.8364 22.0 29.8038
77.319 22.0 29.6723
78.4848 22.0 29.5662
79.3243 22.0 29.4885
79.8307 22.0 29.441
80.0 22.0 29.425
0.0 22.0 47.5093
0.1174 22.0 47.5901
0.5786 22.0 47.6724
1.381 22.0 47.7555
2.5191 22.0 47.8383
3.9842 22.0 47.9194
5.7646 22.0 47.9972
7.8458 22.0 48.0702
10.2099 22.0 48.1365
12.8366 22.0 48.1945
15.7026 22.0 48.2429
18.7823 22.0 48.2803
22.0479 22.0 48.3059
25.4698 22.0 48.3189
29.0172 22.0 48.3192
32.6535 22.0 48.3067
36.3314 22.0 48.284
40.0392 22.0 48.2531
43.7445 22.0 48.2148
47.4155 22.0 48.17
51.0207 22.0 48.1198
54.5291 22.0 48.0654
57.9109 22.0 48.0078
61.1374 22.0 47.9483
64.1813 22.0 47.8881
67.0171 22.0 47.8284
69.6211 22.0 47.7706
71.9715 22.0 47.7158
74.049 22.0 47.6653
75.8364 22.0 47.6202
77.319 22.0 47.5817
78.4848 22.0 47.5506
79.3243 22.0 47.5278
79.8307 22.0 47.5139
80.0 22.0 47.5093
0.0 22.0 55.0
0.1174 22.0 55.0
0.5786 22.0 55.0
1.381 22.0 55.0
2.5191 22.0 55.0
3.9842 22.0 55.0
5.7646 22.0 55.0
7.8458 22.0 55.0
10.2099 22.0 55.0
12.8366 22.0 55.0
15.7026 22.0 55.0
18.7823 22.0 55.0
22.0479 22.0 55.0
25.4698 22.0 55.0
29.0172 22.0 55.0
32.6535 22.0 55.0
36.3314 22.0 55.0
40.0392 22.0 55.0
43.7445 22.0 55.0
47.4155 22.0 55.0
51.0207 22.0 55.0
54.5291 22.0 55.0
57.9109 22.0 55.0
61.1374 22.0 55.0
64.1813 22.0 55.0
67.0171 22.0 55.0
69.6211 22.0 55.0
71.9715 22.0 55.0
74.049 22.0 55.0
75.8364 22.0 55.0
77.319 22.0 55.0
78.4848 22.0 55.0
79.3243 22.0 55.0
79.8307 22.0 55.0
80.0 22.0 55.0
0.0 18.7782 55.0
0.1174 18.7782 55.0
0.5786 18.7782 55.0
1.381 18.7782 55.0
2.5191 18.7782 55.0
3.9842 18.7782 55.0
5.7646 18.7782 55.0
7.8458 18.7782 55.0
10.2099 18.7782 55.0
12.8366 18.7782 55.0
15.7026 18.7782 55.0
18.7823 18.7782 55.0
22.0479 18.7782 55.0
25.4698 18.7782 55.0
29.0172 18.7782 55.0
32.6535 18.7782 55.0
36.3314 18.7782 55.0
40.0392 18.7782 55.0
43.7445 18.7782 55.0
47.4155 18.7782 55.0
51.0207 18.7782 55.0
54.5291 18.7782 55.0
57.9109 18.7782 55.0
61.1374 18.7782 55.0
64.1813 18.7782 55.0
67.0171 18.7782 55.0
69.6211 18.7782 55.0
71.9715 18.7782 55.0
74.049 18.7782 55.0
75.8364 18.7782 55.0
77.319 18.7782 55.0
78.4848 18.7782 55.0
79.3243 18.7782 55.0
79.8307 18.7782 55.0
80.0 18.7782 55.0
0.0 11.0 55.0
0.1174 11.0 55.0
0.5786 11.0 55.0
1.381 11.0 55.0
2.5191 11.0 55.0
3.9842 11.0 55.0
5.7646 11.0 55.0
7.8458 11.0 55.0
10.2099 11.0 55.0
12.8366 11.0 55.0
15.7026 11.0 55.0
18.7823 11.0 55.0
22.0479 11.0 55.0
25.4698 11.0 55.0
29.0172 11.0 55.0
32.6535 11.0 55.0
36.3314 11.0 55.0
40.0392 11.0 55.0
43.7445 11.0 55.0
47.4155 11.0 55.0
51.0207 11.0 55.0
54.5291 11.0 55.0
57.9109 11.0 55.0
61.1374 11.0 55.0
64.1813 11.0 55.0
67.0171 11.0 55.0
69.6211 11.0 55.0
71.9715 11.0 55.0
74.049 11.0 55.0
75.8364 11.0 55.0
77.319 11.0 55.0
78.4848 11.0 55.0
79.3243 11.0 55.0
79.8307 11.0 55.0
80.0 11.0 55.0
0.0 3.2218 55.0
0.1174 3.2218 55.0
0.5786 3.2218 55.0
1.381 3.2218 55.0
2.5191 3.2218 55.0
3.9842 3.2218 55.0
5.7646 3.2218 55.0
7.8458 3.2218 55.0
10.2099 3.2218 55.0
12.8366 3.2218 55.0
15.7026 3.2218 55.0
18.7823 3.2218 55.0
22.0479 3.2218 55.0
25.4698 3.2218 55.0
29.0172 3.2218 55.0
32.6535 3.2218 55.0
36.3314 3.2218 55.0
40.0392 3.2218 55.0
43.7445 3.2218 55.0
47.4155 3.2218 55.0
51.0207 3.2218 55.0
54.5291 3.2218 55.0
57.9109 3.2218 55.0
61.1374 3.2218 55.0
64.1813 3.2218 55.0
67.0171 3.2218 55.0
69.6211 3.2218 55.0
71.9715 3.2218 55.0
74.049 3.2218 55.0
75.8364 3.2218 55.0
77.319 3.2218 55.0
78.4848 3.2218 55.0
79.3243 3.2218 55.0
79.8307 3.2218 55.0
80.0 3.2218 55.0
0.0 0.0 55.0
0.1174 0.0 55.0
0.5786 0.0 55.0
1.381 0.0 55.0
2.5191 0.0 55.0
3.9842 0.0 55.0
5.7646 0.0 55.0
7.8458 0.0 55.0
10.2099 0.0 55.0
12.8366 0.0 55.0
15.7026 0.0 55.0
18.7823 0.0 55.0
22.0479 0.0 55.0
25.4698 0.0 55.0
29.0172 0.0 55.0
32.6535 0.0 55.0
36.3314 0.0 55.0
40.0392 0.0 55.0
43.7445 0.0 55.0
47.4155 0.0 55.0
51.0207 0.0 55.0
54.5291 0.0 55.0
57.9109 0.0 55.0
61.1374 0.0 55.0
64.1813 0.0 55.0
67.0171 0.0 55.0
69.6211 0.0 55.0
71.9715 0.0 55.0
74.049 0.0 55.0
75.8364 0.0 55.0
77.319 0.0 55.0
78.4848 0.0 55.0
79.3243 0.0 55.0
79.8307 0.0 55.0
80.0 0.0 55.0
        </DataArray>
      </Points>
      <Cells>
        <DataArray type="Int32" Name="connectivity" format="ascii">
0 35 36 1
1 36 37 2
2 37 38 3
3 38 39 4
4 39 40 5
5 40 41 6
6 41 42 7
7 42 43 8
8 43 44 9
9 44 45 10
10 45 46 11
11 46 47 12
12 47 48 13
13 48 49 14
14 49 50 15
15 50 51 16
16 51 52 17
17 52 53 18
18 53 54 19
19 54 55 20
20 55 56 21
21 56 57 22
22 57 58 23
23 58 59 24
24 59 60 25
25 60 61 26
26 61 62 27
27 62 63 28
28 63 64 29
29 64 65 30
30 65 66 31
31 66 67 32
32 67 68 33
33 68 69 34
35 70 71 36
36 71 72 37
37 72 73 38
38 73 74 39
39 74 75 40
40 75 76 41
41 76 77 42
42 77 78 43
43 78 79 44
44 79 80 45
45 80 81 46
46 81 82 47
47 82 83 48
48 83 84 49
49 84 85 50
50 85 86 51
51 86 87 52
52 87 88 53
53 88 89 54
54 89 90 55
55 90 91 56
56 91 92 57
57 92 93 58
58 93 94 59
59 94 95 60
60 95 96 61
61 96 97 62
62 97 98 63
63 98 99 64
64 99 100 65
65 100 101 66
66 101 102 67
67 102 103 68
68 103 104 69
70 105 106 71
71 106 107 72
72 107 108 73
73 108 109 74
74 109 110 75
75 110 111 76
76 111 112 77
77 112 113 78
78 113 114 79
79 114 115 80
80 115 116 81
81 116 117 82
82 117 118 83
83 118 119 84
84 119 120 85
85 120 121 86
86 121 122 87
87 122 123 88
88 123 124 89
89 124 125 90
90 125 126 91
91 126 127 92
92 127 128 93
93 128 129 94
94 129 130 95
95 130 131 96
96 131 132 97
97 132 133 98
98 133 134 99
99 134 135 100
100 135 136 101
101 136 137 102
102 137 138 103
103 138 139 104
105 140 141 106
106 141 142 107
107 142 143 108
108 143 144 109
109 144 145 110
110 145 146 111
111 146 147 112
112 147 148 113
113 148 149 114
114 149 150 115
115 150 151 116
116 151 152 117
117 152 153 118
118 153 154 119
119 154 155 120
120 155 156 121
121 156 157 122
122 157 158 123
123 158 159 124
124 159 160 125
125 160 161 126
126 161 162 127
127 162 163 128
128 163 164 129
129 164 165 130
130 165 166 131
131 166 167 132
132 167 168 133
133 168 169 134
134 169 170 135
135 170 171 136
136 171 172 137
137 172 173 138
138 173 174 139
140 175 176 141
141 176 177 142
142 177 178 143
143 178 179 144
144 179 180 145
145 180 181 146
146 181 182 147
147 182 183 148
148 183 184 149
149 184 185 150
150 185 186 151
151 186 187 152
152 187 188 153
153 188 189 154
154 189 190 155
155 190 191 156
156 191 192 157
157 192 193 158
158 193 194 159
159 194 195 160
160 195 196 161
161 196 197 162
162 197 198 163
163 198 199 164
164 199 200 165
165 200 201 166
166 201 202 167
167 202 203 168
168 203 204 169
169 204 205 170
170 205 206 171
171 206 207 172
172 207 208 173
173 208 209 174
175 210 211 176
176 211 212 177
177 212 213 178
178 213 214 179
179 214 215 180
180 215 216 181
181 216 217 182
182 217 218 183
183 218 219 184
184 219 220 185
185 220 221 186
186 221 222 187
187 222 223 188
188 223 224 189
189 224 225 190
190 225 226 191
191 226 227 192
192 227 228 193
193 228 229 194
194 229 230 195
195 230 231 196
196 231 232 197
197 232 233 198
198 233 234 199
199 234 235 200
200 235 236 201
201 236 237 202
202 237 238 203
203 238 239 204
204 239 240 205
205 240 241 206
206 241 242 207
207 242 243 208
208 243 244 209
210 245 246 211
211 246 247 212
212 247 248 213
213 248 249 214
214 249 250 215
215 250 251 216
216 251 252 217
217 252 253 218
218 253 254 219
219 254 255 220
220 255 256 221
221 256 257 222
222 257 258 223
223 258 259 224
224 259 260 225
225 260 261 226
226 261 262 227
227 262 263 228
228 263 264 229
229 264 265 230
230 265 266 231
231 266 267 232
232 267 268 233
233 268 269 234
234 269 270 235
235 270 271 236
236 271 272 237
237 272 273 238
238 273 274 239
239 274 275 240
240 275 276 241
241 276 277 242
242 277 278 243
243 278 279 244
245 280 281 246
246 281 282 247
247 282 283 248
248 283 284 249
249 284 285 250
250 285 286 251
251 286 287 252
252 287 288 253
253 288 289 254
254 289 290 255
255 290 291 256
256 291 292 257
257 292 293 258
258 293 294 259
259 294 295 260
260 295 296 261
261 296 297 262
262 297 298 263
263 298 299 264
264 299 300 265
265 300 301 266
266 301 302 267
267 302 303 268
268 303 304 269
269 304 305 270
270 305 306 271
271 306 307 272
272 307 308 273
273 308 309 274
274 309 310 275
275 310 311 276
276 311 312 277
277 312 313 278
278 313 314 279
        </DataArray>
        <DataArray type="Int32" Name="offsets" format="ascii">
4 8 12 16 20 24 28 32 36 40 44 48 52 56 60 64 68 72 76 80 84 88 92 96 100 104 108 112 116 120 124 128 132 136 140 144 148 152 156 160 164 168 172 176 180 184 188 192 196 200 204 208 212 216 220 224 228 232 236 240 244 248 252 256 260 264 268 272 276 280 284 288 292 296 300 304 308 312 316 320 324 328 332 336 340 344 348 352 356 360 364 368 372 376 380 384 388 392 396 400 404 408 412 416 420 424 428 432 436 440 444 448 452 456 460 464 468 472 476 480 484 488 492 496 500 504 508 512 516 520 524 528 532 536 540 544 548 552 556 560 564 568 572 576 580 584 588 592 596 600 604 608 612 616 620 624 628 632 636 640 644 648 652 656 660 664 668 672 676 680 684 688 692 696 700 704 708 712 716 720 724 728 732 736 740 744 748 752 756 760 764 768 772 776 780 784 788 792 796 800 804 808 812 816 820 824 828 832 836 840 844 848 852 856 860 864 868 872 876 880 884 888 892 896 900 904 908 912 916 920 924 928 932 936 940 944 948 952 956 960 964 968 972 976 980 984 988 992 996 1000 1004 1008 1012 1016 1020 1024 1028 1032 1036 1040 1044 1048 1052 1056 1060 1064 1068 1072 1076 1080 1084 1088
        </DataArray>
        <DataArray type="Int32" Name="types" format="ascii">
9 9 9 9 9 9 9 9 9 9 9 9 9 9 9 9 9 9 9 9 9 9 9 9 9 9 9 9 9 9 9 9 9 9 9 9 9 9 9 9 9 9 9 9 9 9 9 9 9 9 9 9 9 9 9 9 9 9 9 9 9 9 9 9 9 9 9 9 9 9 9 9 9 9 9 9 9 9 9 9 9 9 9 9 9 9 9 9 9 9 9 9 9 9 9 9 9 9 9 9 9 9 9 9 9 9 9 9 9 9 9 9 9 9 9 9 9 9 9 9 9 9 9 9 9 9 9 9 9 9 9 9 9 9 9 9 9 9 9 9 9 9 9 9 9 9 9 9 9 9 9 9 9 9 9 9 9 9 9 9 9 9 9 9 9 9 9 9 9 9 9 9 9 9 9 9 9 9 9 9 9 9 9 9 9 9 9 9 9 9 9 9 9 9 9 9 9 9 9 9 9 9 9 9 9 9 9 9 9 9 9 9 9 9 9 9 9 9 9 9 9 9 9 9 9 9 9 9 9 9 9 9 9 9 9 9 9 9 9 9 9 9 9 9 9 9 9 9 9 9 9 9 9 9 9 9 9 9 9 9 9 9 9 9 9 9 9 9 9 9 9 9
        </DataArray>
      </Cells>
    </Piece>
  </UnstructuredGrid>
</VTKFile>
