<?xml version="1.0"?>
<VTKFile type="UnstructuredGrid" version="1.0" byte_order="LittleEndian">
  <UnstructuredGrid>
    <Piece NumberOfPoints="245" NumberOfCells="204">
      <PointData Scalars="scalars">
        <DataArray type="Float32" Name="cp1" format="ascii">
-1.42411 -0.811981 -0.360954 -0.370727 -0.306203 -0.258849 -0.223013 -0.195208 -0.173313 -0.1558 -0.141442 -0.129371 -0.119012 -0.109894 -0.10173 -0.0944258 -0.0878682 -0.0820258 -0.0770883 -0.0733143 -0.0705567 -0.0687867 -0.068736 -0.0707528 -0.0745433 -0.0802762 -0.0882052 -0.0982911 -0.11038 -0.124027 -0.138524 -0.152724 -0.164966 -0.1734 -0.176448 -1.69113 -0.975519 -0.436432 -0.378491 -0.309885 -0.260554 -0.223745 -0.195466 -0.173394 -0.155876 -0.141592 -0.129627 -0.11932 -0.110212 -0.102038 -0.0946797 -0.0880434 -0.0821672 -0.077176 -0.0732578 -0.0704113 -0.0687201 -0.0686041 -0.0703256 -0.074036 -0.0798317 -0.0877255 -0.0977623 -0.109837 -0.123455 -0.13786 -0.151956 -0.164149 -0.172507 -0.176449 -1.87174 -1.03859 -0.438713 -0.361984 -0.295866 -0.250047 -0.218045 -0.194478 -0.175991 -0.160792 -0.147649 -0.135905 -0.125164 -0.115262 -0.106177 -0.0978922 -0.0903324 -0.0835473 -0.0775982 -0.0725906 -0.0685876 -0.0657734 -0.0643635 -0.0644369 -0.0663119 -0.0701509 -0.0758342 -0.0836488 -0.0939377 -0.106063 -0.119119 -0.132247 -0.144052 -0.152567 -0.158918 -1.55642 -0.862993 -0.367253 -0.329787 -0.285753 -0.258875 -0.239615 -0.222493 -0.205671 -0.189026 -0.172688 -0.157071 -0.142444 -0.12904 -0.117173 -0.106879 -0.0975901 -0.0889317 -0.0809585 -0.0737971 -0.0674963 -0.0622227 -0.0580461 -0.0548315 -0.0527515 -0.0520523 -0.0525829 -0.0546391 -0.058952 -0.0652676 -0.0731209 -0.0821072 -0.091018 -0.0979023 -0.104055 -1.12058 -0.675724 -0.352495 -0.372477 -0.370272 -0.35803 -0.331401 -0.298005 -0.264637 -0.233966 -0.20661 -0.182627 -0.161666 -0.143505 -0.128697 -0.117366 -0.10746 -0.097465 -0.0877762 -0.078849 -0.0707371 -0.0634655 -0.0569479 -0.0510002 -0.0455366 -0.0406142 -0.0360868 -0.031823 -0.0282689 -0.0261028 -0.0264468 -0.0305791 -0.0389379 -0.0514986 -0.0632751 -0.7294 -0.563982 -0.479373 -0.556163 -0.563205 -0.516236 -0.44464 -0.373883 -0.314563 -0.267194 -0.229436 -0.198815 -0.173336 -0.151941 -0.135363 -0.123805 -0.113836 -0.102971 -0.0919809 -0.081719 -0.072335 -0.0637892 -0.0559278 -0.0485892 -0.0414064 -0.0339919 -0.0260545 -0.016893 -0.0059826 0.00664405 0.0201407 0.0316237 0.0345585 0.0222757 0.0076304 -0.515937 -0.463435 -0.586995 -0.75888 -0.71832 -0.606589 -0.491039 -0.398326 -0.329364 -0.277204 -0.236374 -0.203345 -0.175669 -0.152023 -0.134219 -0.123379 -0.113795 -0.101737 -0.0893804 -0.0782016 -0.0682732 -0.0594756 -0.0515441 -0.0443962 -0.0375981 -0.0305263 -0.0228293 -0.0132338 -0.000246499 0.0178978 0.0439104 0.0782725 0.110901 0.113209 0.0999196
        </DataArray>
        <DataArray type="Float32" Name="cp2" format="ascii">
-1.27517 -0.700647 -0.277511 -0.286928 -0.226577 -0.182439 -0.149259 -0.123806 -0.10419 -0.0890213 -0.0771427 -0.067732 -0.0602096 -0.0540636 -0.0489427 -0.0447069 -0.0412028 -0.0383278 -0.0362547 -0.0352205 -0.0350395 -0.035658 -0.0378222 -0.0418852 -0.0475199 -0.054898 -0.0642833 -0.075631 -0.0887871 -0.103303 -0.118482 -0.133183 -0.145761 -0.154411 -0.157541 -1.52458 -0.852725 -0.347592 -0.294293 -0.230147 -0.184073 -0.149898 -0.123897 -0.104024 -0.0888058 -0.0769882 -0.0676995 -0.0602598 -0.0541596 -0.0490704 -0.0448181 -0.041268 -0.0383906 -0.0362796 -0.0351001 -0.0348435 -0.0355671 -0.0376784 -0.0414479 -0.0470204 -0.0544831 -0.0638359 -0.0751281 -0.088269 -0.102759 -0.117846 -0.132442 -0.144974 -0.153553 -0.157545 -1.69865 -0.906582 -0.341291 -0.270147 -0.208234 -0.165387 -0.136098 -0.115145 -0.0994569 -0.0874334 -0.0777801 -0.0697448 -0.062804 -0.0566966 -0.0513341 -0.0466538 -0.0425697 -0.0390945 -0.0362687 -0.0341889 -0.032928 -0.0326612 -0.0336048 -0.035835 -0.0396661 -0.0452594 -0.0524715 -0.0615973 -0.0730175 -0.086078 -0.0998587 -0.113543 -0.125807 -0.134587 -0.141178 -1.36668 -0.694625 -0.229143 -0.195313 -0.157139 -0.136952 -0.125603 -0.116855 -0.108427 -0.0998306 -0.0909343 -0.0821155 -0.0736323 -0.0657654 -0.0588886 -0.0531165 -0.04799 -0.0431728 -0.0387418 -0.0348465 -0.0315601 -0.0290703 -0.0274763 -0.0266318 -0.0267158 -0.0280077 -0.0303298 -0.0339487 -0.0396318 -0.0471122 -0.0558494 -0.0653395 -0.074166 -0.0799287 -0.0847549 -0.842046 -0.420101 -0.12124 -0.13617 -0.148905 -0.162366 -0.164279 -0.156373 -0.143874 -0.129689 -0.115327 -0.1018 -0.0894138 -0.0784141 -0.0696625 -0.0635834 -0.0584178 -0.0527393 -0.0469608 -0.0415739 -0.0366821 -0.0323538 -0.0285361 -0.0250568 -0.021848 -0.019009 -0.0164088 -0.0138504 -0.0117608 -0.010828 -0.0120576 -0.016491 -0.0241873 -0.0344194 -0.0436473 -0.16075 -0.0808931 -0.0558024 -0.161555 -0.22786 -0.248606 -0.235825 -0.209059 -0.180872 -0.155522 -0.133803 -0.115376 -0.0995223 -0.0859537 -0.0758472 -0.0697955 -0.0647648 -0.0584057 -0.0514916 -0.0449015 -0.0388417 -0.0333257 -0.028244 -0.0234702 -0.0186346 -0.0133922 -0.00755076 -0.000360633 0.00876052 0.0197449 0.0318001 0.0421886 0.0445677 0.0327933 0.0188925 0.385949 0.247994 -0.00699862 -0.259534 -0.342037 -0.333469 -0.288339 -0.240033 -0.199653 -0.167007 -0.140388 -0.118352 -0.0995429 -0.0832608 -0.0715973 -0.0659329 -0.0610097 -0.0533086 -0.0449655 -0.0374537 -0.0309042 -0.0252422 -0.0202421 -0.0158598 -0.0116222 -0.00697377 -0.00176602 0.00537437 0.0160117 0.0317422 0.0552168 0.08694 0.116931 0.117526 0.103683
        </DataArray>
        <DataArray type="Float32" Name="cp3" format="ascii">
-1.12551 -0.588766 -0.193627 -0.202673 -0.146505 -0.105583 -0.0750445 -0.0519158 -0.0345308 -0.0216349 -0.0121432 -0.00528103 -0.000470902 0.00283668 0.00504867 0.00634823 0.00692583 0.00695155 0.00626935 0.0046647 0.00236032 -0.000565063 -0.00486896 -0.010907 -0.0183199 -0.0272812 -0.0380628 -0.0506136 -0.0647801 -0.0801093 -0.0959182 -0.111072 -0.123949 -0.132788 -0.135991 -1.35708 -0.729288 -0.258187 -0.20949 -0.149844 -0.107065 -0.0755456 -0.0518245 -0.0341229 -0.021142 -0.0117019 -0.00497788 -0.000278336 0.00294921 0.00509121 0.00637198 0.00696448 0.006963 0.0063039 0.00484532 0.00260377 -0.000451753 -0.00471461 -0.0104615 -0.0178298 -0.0268964 -0.0376483 -0.0501374 -0.0642873 -0.0795946 -0.0953112 -0.110359 -0.123191 -0.131967 -0.135997 -1.5232 -0.774425 -0.244062 -0.17849 -0.120883 -0.0810865 -0.0544985 -0.0360756 -0.0230468 -0.0140126 -0.00763933 -0.00309693 0.000255433 0.00276653 0.00459011 0.00583355 0.00659385 0.00689499 0.00671837 0.00597741 0.00459158 0.00239607 -0.000824811 -0.00514285 -0.0108667 -0.0181551 -0.0268412 -0.0372257 -0.0497244 -0.0636689 -0.0781264 -0.0923212 -0.105006 -0.114024 -0.120836 -1.18147 -0.539029 -0.102979 -0.0712057 -0.0367771 -0.0212677 -0.016127 -0.0143961 -0.013288 -0.0118965 -0.00978255 -0.00724018 -0.00448581 -0.00182156 0.00033928 0.00181717 0.00297294 0.00411121 0.00513747 0.00588355 0.00625589 0.0060485 0.00513606 0.00367663 0.00148666 -0.00174375 -0.0058101 -0.0109494 -0.0179611 -0.026566 -0.0361502 -0.0461126 -0.0548366 -0.0594808 -0.0629272 -0.61751 -0.220175 0.0597597 0.0556163 0.0391966 0.0107749 -0.0116401 -0.0239425 -0.0289548 -0.0291074 -0.0263288 -0.0222879 -0.0177879 -0.0134438 -0.0103632 -0.00922818 -0.00855211 -0.00698601 -0.004951 -0.00296674 -0.00118035 0.000300713 0.00149881 0.00257542 0.00358117 0.00437925 0.00508557 0.00595944 0.00659532 0.00630001 0.00418695 -0.000546574 -0.00758367 -0.0155189 -0.0222461 0.225623 0.261467 0.265021 0.1554 0.0553727 -0.0131553 -0.0462005 -0.0557662 -0.0542791 -0.0483127 -0.0409835 -0.0336561 -0.0266655 -0.0203698 -0.0163148 -0.015433 -0.0150636 -0.0129841 -0.0099614 -0.0068907 -0.00402839 -0.00143632 0.000953331 0.00323388 0.00577631 0.00888711 0.0126614 0.0178922 0.025218 0.0345382 0.0451175 0.0543717 0.0561722 0.0449341 0.0317409 0.983484 0.761374 0.467002 0.175366 0.00209296 -0.0750778 -0.092501 -0.0851765 -0.0716768 -0.0575398 -0.0444524 -0.0329104 -0.0225833 -0.0133632 -0.00759348 -0.00689754 -0.00645684 -0.00296582 0.00148526 0.00543282 0.00869202 0.0112959 0.0134329 0.0151114 0.0168411 0.0191119 0.0218744 0.0265967 0.034909 0.0482374 0.0691664 0.0982208 0.125542 0.124449 0.110096
        </DataArray>
      </PointData>
      <Points>
        <DataArray type="Float32" Name="network4" NumberOfComponents="3" format="ascii">
0.0 0.0 0.0
0.2238 0.0 0.0
0.7835 0.0 0.0
1.6729 0.0 0.0
2.8831 0.0 0.0
4.4028 0.0 0.0
6.218 0.0 0.0
8.3129 0.0 0.0
10.6693 0.0 0.0
13.2677 0.0 0.0
16.0866 0.0 0.0
19.1031 0.0 0.0
22.2931 0.0 0.0
25.6308 0.0 0.0
29.0898 0.0 0.0
32.6465 0.0 0.0
36.2871 0.0 0.0
39.9608 0.0 0.0
43.6369 0.0 0.0
47.2844 0.0 0.0
50.8724 0.0 0.0
54.3702 0.0 0.0
57.7482 0.0 0.0
60.9772 0.0 0.0
64.0295 0.0 0.0
66.8785 0.0 0.0
69.4996 0.0 0.0
71.8698 0.0 0.0
73.9684 0.0 0.0
75.7767 0.0 0.0
77.2788 0.0 0.0
78.4613 0.0 0.0
79.3135 0.0 0.0
79.828 0.0 0.0
80.0 0.0 0.0
0.0 3.2218 0.0
0.2238 3.2218 0.0
0.7835 3.2218 0.0
1.6729 3.2218 0.0
2.8831 3.2218 0.0
4.4028 3.2218 0.0
6.218 3.2218 0.0
8.3129 3.2218 0.0
10.6693 3.2218 0.0
13.2677 3.2218 0.0
16.0866 3.2218 0.0
19.1031 3.2218 0.0
22.2931 3.2218 0.0
25.6308 3.2218 0.0
29.0898 3.2218 0.0
32.6465 3.2218 0.0
36.2871 3.2218 0.0
39.9608 3.2218 0.0
43.6369 3.2218 0.0
47.2844 3.2218 0.0
50.8724 3.2218 0.0
54.3702 3.2218 0.0
57.7482 3.2218 0.0
60.9772 3.2218 0.0
64.0295 3.2218 0.0
66.8785 3.2218 0.0
69.4996 3.2218 0.0
71.8698 3.2218 0.0
73.9684 3.2218 0.0
75.7767 3.2218 0.0
77.2788 3.2218 0.0
78.4613 3.2218 0.0
79.3135 3.2218 0.0
79.828 3.2218 0.0
80.0 3.2218 0.0
0.0 11.0 0.0
0.2238 11.0 0.0
0.7835 11.0 0.0
1.6729 11.0 0.0
2.8831 11.0 0.0
4.4028 11.0 0.0
6.218 11.0 0.0
8.3129 11.0 0.0
10.6693 11.0 0.0
13.2677 11.0 0.0
16.0866 11.0 0.0
19.1031 11.0 0.0
22.2931 11.0 0.0
25.6308 11.0 0.0
29.0898 11.0 0.0
32.6465 11.0 0.0
36.2871 11.0 0.0
39.9608 11.0 0.0
43.6369 11.0 0.0
47.2844 11.0 0.0
50.8724 11.0 0.0
54.3702 11.0 0.0
57.7482 11.0 0.0
60.9772 11.0 0.0
64.0295 11.0 0.0
66.8785 11.0 0.0
69.4996 11.0 0.0
71.8698 11.0 0.0
73.9684 11.0 0.0
75.7767 11.0 0.0
77.2788 11.0 0.0
78.4613 11.0 0.0
79.3135 11.0 0.0
79.828 11.0 0.0
80.0 11.0 0.0
0.0 18.7782 0.0
0.2238 18.7782 0.0
0.7835 18.7782 0.0
1.6729 18.7782 0.0
2.8831 18.7782 0.0
4.4028 18.7782 0.0
6.218 18.7782 0.0
8.3129 18.7782 0.0
10.6693 18.7782 0.0
13.2677 18.7782 0.0
16.0866 18.7782 0.0
19.1031 18.7782 0.0
22.2931 18.7782 0.0
25.6308 18.7782 0.0
29.0898 18.7782 0.0
32.6465 18.7782 0.0
36.2871 18.7782 0.0
39.9608 18.7782 0.0
43.6369 18.7782 0.0
47.2844 18.7782 0.0
50.8724 18.7782 0.0
54.3702 18.7782 0.0
57.7482 18.7782 0.0
60.9772 18.7782 0.0
64.0295 18.7782 0.0
66.8785 18.7782 0.0
69.4996 18.7782 0.0
71.8698 18.7782 0.0
73.9684 18.7782 0.0
75.7767 18.7782 0.0
77.2788 18.7782 0.0
78.4613 18.7782 0.0
79.3135 18.7782 0.0
79.828 18.7782 0.0
80.0 18.7782 0.0
0.0 22.0 0.0
0.2238 22.0 0.0
0.7835 22.0 0.0
1.6729 22.0 0.0
2.8831 22.0 0.0
4.4028 22.0 0.0
6.218 22.0 0.0
8.3129 22.0 0.0
10.6693 22.0 0.0
13.2677 22.0 0.0
16.0866 22.0 0.0
19.1031 22.0 0.0
22.2931 22.0 0.0
25.6308 22.0 0.0
29.0898 22.0 0.0
32.6465 22.0 0.0
36.2871 22.0 0.0
39.9608 22.0 0.0
43.6369 22.0 0.0
47.2844 22.0 0.0
50.8724 22.0 0.0
54.3702 22.0 0.0
57.7482 22.0 0.0
60.9772 22.0 0.0
64.0295 22.0 0.0
66.8785 22.0 0.0
69.4996 22.0 0.0
71.8698 22.0 0.0
73.9684 22.0 0.0
75.7767 22.0 0.0
77.2788 22.0 0.0
78.4613 22.0 0.0
79.3135 22.0 0.0
79.828 22.0 0.0
80.0 22.0 0.0
0.0 22.0 1.925
0.2238 22.0 1.666
0.7835 22.0 1.4353
1.6729 22.0 1.2332
2.8831 22.0 1.0603
4.4028 22.0 0.9166
6.218 22.0 0.802
8.3129 22.0 0.7159
10.6693 22.0 0.6572
13.2677 22.0 0.6243
16.0866 22.0 0.6149
19.1031 22.0 0.626
22.2931 22.0 0.6541
25.6308 22.0 0.6956
29.0898 22.0 0.7462
32.6465 22.0 0.8021
36.2871 22.0 0.8668
39.9608 22.0 0.9408
43.6369 22.0 1.0213
47.2844 22.0 1.1055
50.8724 22.0 1.1912
54.3702 22.0 1.2764
57.7482 22.0 1.3596
60.9772 22.0 1.4397
64.0295 22.0 1.5158
66.8785 22.0 1.5871
69.4996 22.0 1.653
71.8698 22.0 1.7131
73.9684 22.0 1.7668
75.7767 22.0 1.8135
77.2788 22.0 1.8527
78.4613 22.0 1.8839
79.3135 22.0 1.9066
79.828 22.0 1.9204
80.0 22.0 1.925
0.0 22.0 3.85
0.2238 22.0 3.332
0.7835 22.0 2.8705
1.6729 22.0 2.4665
2.8831 22.0 2.1206
4.4028 22.0 1.8332
6.218 22.0 1.6039
8.3129 22.0 1.4317
10.6693 22.0 1.3144
13.2677 22.0 1.2486
16.0866 22.0 1.2298
19.1031 22.0 1.2519
22.2931 22.0 1.3083
25.6308 22.0 1.3911
29.0898 22.0 1.4924
32.6465 22.0 1.6042
36.2871 22.0 1.7336
39.9608 22.0 1.8817
43.6369 22.0 2.0426
47.2844 22.0 2.211
50.8724 22.0 2.3823
54.3702 22.0 2.5527
57.7482 22.0 2.7192
60.9772 22.0 2.8794
64.0295 22.0 3.0315
66.8785 22.0 3.1741
69.4996 22.0 3.306
71.8698 22.0 3.4262
73.9684 22.0 3.5336
75.7767 22.0 3.627
77.2788 22.0 3.7055
78.4613 22.0 3.7679
79.3135 22.0 3.8132
79.828 22.0 3.8408
80.0 22.0 3.85
        </DataArray>
      </Points>
      <Cells>
        <DataArray type="Int32" Name="connectivity" format="ascii">
0 35 36 1
1 36 37 2
2 37 38 3
3 38 39 4
4 39 40 5
5 40 41 6
6 41 42 7
7 42 43 8
8 43 44 9
9 44 45 10
10 45 46 11
11 46 47 12
12 47 48 13
13 48 49 14
14 49 50 15
15 50 51 16
16 51 52 17
17 52 53 18
18 53 54 19
19 54 55 20
20 55 56 21
21 56 57 22
22 57 58 23
23 58 59 24
24 59 60 25
25 60 61 26
26 61 62 27
27 62 63 28
28 63 64 29
29 64 65 30
30 65 66 31
31 66 67 32
32 67 68 33
33 68 69 34
35 70 71 36
36 71 72 37
37 72 73 38
38 73 74 39
39 74 75 40
40 75 76 41
41 76 77 42
42 77 78 43
43 78 79 44
44 79 80 45
45 80 81 46
46 81 82 47
47 82 83 48
48 83 84 49
49 84 85 50
50 85 86 51
51 86 87 52
52 87 88 53
53 88 89 54
54 89 90 55
55 90 91 56
56 91 92 57
57 92 93 58
58 93 94 59
59 94 95 60
60 95 96 61
61 96 97 62
62 97 98 63
63 98 99 64
64 99 100 65
65 100 101 66
66 101 102 67
67 102 103 68
68 103 104 69
70 105 106 71
71 106 107 72
72 107 108 73
73 108 109 74
74 109 110 75
75 110 111 76
76 111 112 77
77 112 113 78
78 113 114 79
79 114 115 80
80 115 116 81
81 116 117 82
82 117 118 83
83 118 119 84
84 119 120 85
85 120 121 86
86 121 122 87
87 122 123 88
88 123 124 89
89 124 125 90
90 125 126 91
91 126 127 92
92 127 128 93
93 128 129 94
94 129 130 95
95 130 131 96
96 131 132 97
97 132 133 98
98 133 134 99
99 134 135 100
100 135 136 101
101 136 137 102
102 137 138 103
103 138 139 104
105 140 141 106
106 141 142 107
107 142 143 108
108 143 144 109
109 144 145 110
110 145 146 111
111 146 147 112
112 147 148 113
113 148 149 114
114 149 150 115
115 150 151 116
116 151 152 117
117 152 153 118
118 153 154 119
119 154 155 120
120 155 156 121
121 156 157 122
122 157 158 123
123 158 159 124
124 159 160 125
125 160 161 126
126 161 162 127
127 162 163 128
128 163 164 129
129 164 165 130
130 165 166 131
131 166 167 132
132 167 168 133
133 168 169 134
134 169 170 135
135 170 171 136
136 171 172 137
137 172 173 138
138 173 174 139
140 175 176 141
141 176 177 142
142 177 178 143
143 178 179 144
144 179 180 145
145 180 181 146
146 181 182 147
147 182 183 148
148 183 184 149
149 184 185 150
150 185 186 151
151 186 187 152
152 187 188 153
153 188 189 154
154 189 190 155
155 190 191 156
156 191 192 157
157 192 193 158
158 193 194 159
159 194 195 160
160 195 196 161
161 196 197 162
162 197 198 163
163 198 199 164
164 199 200 165
165 200 201 166
166 201 202 167
167 202 203 168
168 203 204 169
169 204 205 170
170 205 206 171
171 206 207 172
172 207 208 173
173 208 209 174
175 210 211 176
176 211 212 177
177 212 213 178
178 213 214 179
179 214 215 180
180 215 216 181
181 216 217 182
182 217 218 183
183 218 219 184
184 219 220 185
185 220 221 186
186 221 222 187
187 222 223 188
188 223 224 189
189 224 225 190
190 225 226 191
191 226 227 192
192 227 228 193
193 228 229 194
194 229 230 195
195 230 231 196
196 231 232 197
197 232 233 198
198 233 234 199
199 234 235 200
200 235 236 201
201 236 237 202
202 237 238 203
203 238 239 204
204 239 240 205
205 240 241 206
206 241 242 207
207 242 243 208
208 243 244 209
        </DataArray>
        <DataArray type="Int32" Name="offsets" format="ascii">
4 8 12 16 20 24 28 32 36 40 44 48 52 56 60 64 68 72 76 80 84 88 92 96 100 104 108 112 116 120 124 128 132 136 140 144 148 152 156 160 164 168 172 176 180 184 188 192 196 200 204 208 212 216 220 224 228 232 236 240 244 248 252 256 260 264 268 272 276 280 284 288 292 296 300 304 308 312 316 320 324 328 332 336 340 344 348 352 356 360 364 368 372 376 380 384 388 392 396 400 404 408 412 416 420 424 428 432 436 440 444 448 452 456 460 464 468 472 476 480 484 488 492 496 500 504 508 512 516 520 524 528 532 536 540 544 548 552 556 560 564 568 572 576 580 584 588 592 596 600 604 608 612 616 620 624 628 632 636 640 644 648 652 656 660 664 668 672 676 680 684 688 692 696 700 704 708 712 716 720 724 728 732 736 740 744 748 752 756 760 764 768 772 776 780 784 788 792 796 800 804 808 812 816
        </DataArray>
        <DataArray type="Int32" Name="types" format="ascii">
9 9 9 9 9 9 9 9 9 9 9 9 9 9 9 9 9 9 9 9 9 9 9 9 9 9 9 9 9 9 9 9 9 9 9 9 9 9 9 9 9 9 9 9 9 9 9 9 9 9 9 9 9 9 9 9 9 9 9 9 9 9 9 9 9 9 9 9 9 9 9 9 9 9 9 9 9 9 9 9 9 9 9 9 9 9 9 9 9 9 9 9 9 9 9 9 9 9 9 9 9 9 9 9 9 9 9 9 9 9 9 9 9 9 9 9 9 9 9 9 9 9 9 9 9 9 9 9 9 9 9 9 9 9 9 9 9 9 9 9 9 9 9 9 9 9 9 9 9 9 9 9 9 9 9 9 9 9 9 9 9 9 9 9 9 9 9 9 9 9 9 9 9 9 9 9 9 9 9 9 9 9 9 9 9 9 9 9 9 9 9 9 9 9 9 9 9 9 9 9 9 9 9 9
        </DataArray>
      </Cells>
    </Piece>
  </UnstructuredGrid>
</VTKFile>
