<?xml version="1.0"?>
<VTKFile type="UnstructuredGrid" version="1.0" byte_order="LittleEndian">
  <UnstructuredGrid>
    <Piece NumberOfPoints="25" NumberOfCells="16">
      <PointData Scalars="scalars">
        <DataArray type="Float32" Name="cp1" format="ascii">
0.188272 0.0970725 0.0236113 0.0584706 0.0842354 0.352447 0.229802 0.130708 0.129367 0.14498 0.359205 0.262528 0.18521 0.180478 0.189575 0.222315 0.190927 0.169725 0.180269 0.176079 0.222999 0.19031 0.185932 0.194835 0.172324
        </DataArray>
        <DataArray type="Float32" Name="cp2" format="ascii">
0.196124 0.101107 0.0352158 0.0751812 0.0942814 0.356586 0.23141 0.133901 0.132696 0.142687 0.360027 0.261116 0.181458 0.173721 0.178499 0.223177 0.189847 0.166348 0.174316 0.167858 0.223922 0.189216 0.183042 0.189504 0.164172
        </DataArray>
        <DataArray type="Float32" Name="cp3" format="ascii">
0.20588 0.107296 0.0490726 0.0921124 0.102231 0.362276 0.234885 0.139179 0.137233 0.140781 0.362416 0.261525 0.179827 0.169063 0.169638 0.225931 0.190741 0.165001 0.170359 0.161635 0.226736 0.190098 0.182144 0.186134 0.158024
        </DataArray>
      </PointData>
      <Points>
        <DataArray type="Float32" Name="network9" NumberOfComponents="3" format="ascii">
302.0 3.0 41.05
302.0 3.0 40.8962
302.0 3.0 40.525
302.0 3.0 40.1538
302.0 3.0 40.0
302.0 2.5607 41.05
302.0 2.5607 40.8962
302.0 2.5607 40.525
302.0 2.5607 40.1538
302.0 2.5607 40.0
302.0 1.5 41.05
302.0 1.5 40.8962
302.0 1.5 40.525
302.0 1.5 40.1538
302.0 1.5 40.0
302.0 0.4393 41.05
302.0 0.4393 40.8962
302.0 0.4393 40.525
302.0 0.4393 40.1538
302.0 0.4393 40.0
302.0 0.0 41.05
302.0 0.0 40.8962
302.0 0.0 40.525
302.0 0.0 40.1538
302.0 0.0 40.0
        </DataArray>
      </Points>
      <Cells>
        <DataArray type="Int32" Name="connectivity" format="ascii">
0 5 6 1
1 6 7 2
2 7 8 3
3 8 9 4
5 10 11 6
6 11 12 7
7 12 13 8
8 13 14 9
10 15 16 11
11 16 17 12
12 17 18 13
13 18 19 14
15 20 21 16
16 21 22 17
17 22 23 18
18 23 24 19
        </DataArray>
        <DataArray type="Int32" Name="offsets" format="ascii">
4 8 12 16 20 24 28 32 36 40 44 48 52 56 60 64
        </DataArray>
        <DataArray type="Int32" Name="types" format="ascii">
9 9 9 9 9 9 9 9 9 9 9 9 9 9 9 9
        </DataArray>
      </Cells>
    </Piece>
  </UnstructuredGrid>
</VTKFile>
