<?xml version="1.0"?>
<VTKFile type="UnstructuredGrid" version="1.0" byte_order="LittleEndian">
  <UnstructuredGrid>
    <Piece NumberOfPoints="140" NumberOfCells="102">
      <PointData Scalars="scalars">
        <DataArray type="Float32" Name="cp1" format="ascii">
-3.48 -2.45887 -1.18851 -0.889772 -0.693245 -0.556873 -0.458904 -0.385761 -0.329224 -0.284452 -0.248482 -0.219284 -0.19546 -0.176037 -0.160329 -0.147852 -0.138212 -0.131181 -0.126869 -0.125427 -0.126441 -0.129694 -0.136077 -0.14647 -0.161436 -0.181786 -0.208821 -0.244709 -0.292631 -0.358543 -0.454048 -0.622088 0.185093 -3.97156 -7.7646 -3.20456 -2.16786 -1.04891 -0.660049 -0.460664 -0.343383 -0.26863 -0.218326 -0.18311 -0.157778 -0.139296 -0.12569 -0.115701 -0.108486 -0.10346 -0.100204 -0.0983912 -0.0978299 -0.0984495 -0.100187 -0.102878 -0.106469 -0.11126 -0.117532 -0.12553 -0.135685 -0.148788 -0.166304 -0.190931 -0.228656 -0.292725 -0.414846 -0.447724 -3.25622 -6.61657 -2.96865 -1.96742 -0.871633 -0.497106 -0.312029 -0.209755 -0.149866 -0.113655 -0.0914896 -0.0780393 -0.0702105 -0.0660968 -0.0645317 -0.0647407 -0.0662241 -0.068626 -0.0716489 -0.0750874 -0.0787303 -0.0823977 -0.0862178 -0.0904633 -0.0951722 -0.100266 -0.10586 -0.112299 -0.120287 -0.131203 -0.147662 -0.175565 -0.228208 -0.337381 -0.358451 -3.28214 -6.8331 -3.00816 -1.9679 -0.67088 -0.396432 -0.242026 -0.152327 -0.10038 -0.0704614 -0.0536926 -0.0449393 -0.0411821 -0.0405825 -0.0420945 -0.0449975 -0.0488434 -0.0533688 -0.0582709 -0.0633167 -0.0681508 -0.0724058 -0.0767017 -0.0820423 -0.0883518 -0.0953006 -0.103135 -0.112441 -0.124256 -0.140494 -0.16413 -0.200813 -0.262521 -0.393637 0.521212 -3.97275 -8.19767
        </DataArray>
        <DataArray type="Float32" Name="cp2" format="ascii">
-11.1928 -7.81718 -3.58531 -2.57188 -1.92694 -1.49169 -1.18822 -0.968213 -0.802865 -0.675005 -0.573977 -0.492699 -0.426335 -0.371581 -0.326093 -0.288115 -0.256298 -0.229706 -0.207817 -0.189939 -0.174896 -0.162695 -0.154697 -0.151693 -0.154032 -0.16235 -0.177775 -0.202274 -0.238815 -0.293245 -0.377221 -0.535086 0.311333 -3.93922 -7.87888 -10.4724 -7.09101 -3.40519 -2.09882 -1.42477 -1.02777 -0.775059 -0.60504 -0.485726 -0.399202 -0.334889 -0.286037 -0.248321 -0.218861 -0.195662 -0.177304 -0.162736 -0.15123 -0.142265 -0.135279 -0.129673 -0.12544 -0.123098 -0.122882 -0.12493 -0.129579 -0.137528 -0.150142 -0.170023 -0.203121 -0.262656 -0.380744 -0.403958 -3.27517 -6.73142 -10.0263 -6.71547 -3.07947 -1.80274 -1.15599 -0.78633 -0.560064 -0.414766 -0.318136 -0.252161 -0.206212 -0.173739 -0.150634 -0.134183 -0.1226 -0.114637 -0.109366 -0.106131 -0.104346 -0.103382 -0.102997 -0.103536 -0.10529 -0.108197 -0.112323 -0.117987 -0.125875 -0.137368 -0.155109 -0.18507 -0.240499 -0.35328 -0.372556 -3.37892 -7.02259 -10.3006 -6.89957 -2.63758 -1.67673 -1.11145 -0.760972 -0.539333 -0.395122 -0.298898 -0.233327 -0.187835 -0.155887 -0.13346 -0.117809 -0.107191 -0.100419 -0.0965177 -0.0947995 -0.0945015 -0.0945938 -0.0950992 -0.0972951 -0.101706 -0.108101 -0.116693 -0.128078 -0.143348 -0.164504 -0.194691 -0.239782 -0.311769 -0.455116 0.483409 -4.14934 -8.46121
        </DataArray>
        <DataArray type="Float32" Name="cp3" format="ascii">
-23.1455 -16.0875 -7.2219 -5.097 -3.76209 -2.87167 -2.25874 -1.82012 -1.49472 -1.24605 -1.05147 -0.896083 -0.769793 -0.665746 -0.579109 -0.506242 -0.444394 -0.391604 -0.346464 -0.307256 -0.27193 -0.240645 -0.215148 -0.196023 -0.183333 -0.177478 -0.179359 -0.190685 -0.214158 -0.255459 -0.326243 -0.472082 0.413206 -3.91982 -7.99528 -21.7796 -14.7434 -7.05252 -4.31628 -2.90495 -2.07544 -1.5491 -1.19613 -0.949139 -0.770352 -0.637403 -0.536141 -0.457482 -0.395403 -0.345747 -0.305568 -0.272729 -0.245695 -0.2233 -0.20434 -0.187679 -0.173282 -0.161822 -0.153425 -0.148077 -0.145989 -0.147737 -0.154567 -0.168971 -0.19686 -0.251423 -0.365162 -0.37895 -3.30717 -6.85201 -21.1039 -14.1793 -6.57203 -3.88432 -2.51504 -1.72606 -1.23817 -0.92077 -0.7062 -0.556678 -0.449814 -0.371803 -0.313922 -0.270407 -0.237441 -0.212363 -0.193255 -0.178746 -0.167688 -0.158861 -0.151539 -0.146043 -0.142845 -0.141854 -0.143053 -0.1467 -0.153439 -0.16463 -0.182935 -0.214384 -0.272178 -0.388289 -0.406089 -3.4898 -7.21902 -21.7941 -14.7121 -5.82855 -3.79279 -2.57968 -1.81449 -1.32045 -0.990825 -0.7642 -0.604235 -0.488537 -0.403165 -0.339346 -0.291088 -0.25454 -0.226985 -0.206341 -0.191161 -0.18006 -0.171175 -0.163765 -0.159219 -0.15856 -0.161621 -0.168519 -0.179812 -0.196587 -0.220887 -0.255963 -0.307853 -0.38849 -0.542327 0.419459 -4.34162 -8.7293
        </DataArray>
      </PointData>
      <Points>
        <DataArray type="Float32" Name="network2" NumberOfComponents="3" format="ascii">
80.0 202.0 3.85
79.8307 202.0 3.8819
79.3243 202.0 3.9769
78.4848 202.0 4.1325
77.319 202.0 4.3445
75.8364 202.0 4.6077
74.049 202.0 4.9154
71.9715 202.0 5.2604
69.6211 202.0 5.6346
67.0171 202.0 6.0296
64.1813 202.0 6.4369
61.1374 202.0 6.8479
57.9109 202.0 7.2542
54.5291 202.0 7.6473
51.0207 202.0 8.0191
47.4155 202.0 8.3617
43.7445 202.0 8.6676
40.0392 202.0 8.9294
36.3314 202.0 9.1406
32.6535 202.0 9.2952
29.0172 202.0 9.3805
25.4698 202.0 9.3789
22.0479 202.0 9.2898
18.7823 202.0 9.1153
15.7026 202.0 8.8597
12.8366 202.0 8.5294
10.2099 202.0 8.1329
7.8458 202.0 7.6802
5.7646 202.0 7.1822
3.9842 202.0 6.6506
2.5191 202.0 6.0968
1.381 202.0 5.5316
0.5786 202.0 4.9642
0.1174 202.0 4.402
0.0 202.0 3.85
80.0 202.0 3.85
79.8298 202.0 3.8682
79.3207 202.0 3.9224
78.477 202.0 4.0109
77.3056 202.0 4.1315
75.8165 202.0 4.2808
74.0221 202.0 4.4548
71.9376 202.0 4.649
69.5806 202.0 4.8584
66.9709 202.0 5.0777
64.1307 202.0 5.3018
61.084 202.0 5.5251
57.8566 202.0 5.7425
54.4761 202.0 5.9491
50.9712 202.0 6.1402
47.3718 202.0 6.3115
43.7087 202.0 6.4593
40.0131 202.0 6.5802
36.3167 202.0 6.6716
32.6512 202.0 6.7315
29.0414 202.0 6.7511
25.5235 202.0 6.7163
22.1296 202.0 6.6293
18.8892 202.0 6.4942
15.8306 202.0 6.3164
12.9803 202.0 6.1025
10.3631 202.0 5.8601
8.0015 202.0 5.5973
5.9158 202.0 5.3228
4.1237 202.0 5.0448
2.6404 202.0 4.7714
1.4783 202.0 4.5099
0.6469 202.0 4.2663
0.1529 202.0 4.0454
0.0 202.0 3.85
80.0 202.0 3.85
79.8289 202.0 3.8545
79.3171 202.0 3.8678
78.4691 202.0 3.8894
77.2922 202.0 3.9185
75.7966 202.0 3.9539
73.9952 202.0 3.9942
71.9037 202.0 4.0376
69.5401 202.0 4.0822
66.9247 202.0 4.1259
64.0801 202.0 4.1666
61.0306 202.0 4.2022
57.8024 202.0 4.2309
54.4232 202.0 4.2509
50.9218 202.0 4.2613
47.3281 202.0 4.2613
43.6728 202.0 4.2509
39.9869 202.0 4.2309
36.3019 202.0 4.2026
32.6489 202.0 4.1679
29.0656 202.0 4.1218
25.5772 202.0 4.0537
22.2113 202.0 3.9688
18.9962 202.0 3.873
15.9586 202.0 3.7731
13.124 202.0 3.6756
10.5162 202.0 3.5873
8.1572 202.0 3.5145
6.0669 202.0 3.4633
4.2632 202.0 3.439
2.7618 202.0 3.446
1.5756 202.0 3.4882
0.7152 202.0 3.5684
0.1884 202.0 3.6887
0.0 202.0 3.85
80.0 202.0 3.85
79.828 202.0 3.8408
79.3135 202.0 3.8132
78.4613 202.0 3.7679
77.2788 202.0 3.7055
75.7767 202.0 3.627
73.9684 202.0 3.5336
71.8698 202.0 3.4262
69.4996 202.0 3.306
66.8785 202.0 3.1741
64.0295 202.0 3.0315
60.9772 202.0 2.8794
57.7482 202.0 2.7192
54.3702 202.0 2.5527
50.8724 202.0 2.3823
47.2844 202.0 2.211
43.6369 202.0 2.0426
39.9608 202.0 1.8817
36.2871 202.0 1.7336
32.6465 202.0 1.6042
29.0898 202.0 1.4924
25.6308 202.0 1.3911
22.2931 202.0 1.3083
19.1031 202.0 1.2519
16.0866 202.0 1.2298
13.2677 202.0 1.2486
10.6693 202.0 1.3144
8.3129 202.0 1.4317
6.218 202.0 1.6039
4.4028 202.0 1.8332
2.8831 202.0 2.1206
1.6729 202.0 2.4665
0.7835 202.0 2.8705
0.2238 202.0 3.332
0.0 202.0 3.85
        </DataArray>
      </Points>
      <Cells>
        <DataArray type="Int32" Name="connectivity" format="ascii">
0 35 36 1
1 36 37 2
2 37 38 3
3 38 39 4
4 39 40 5
5 40 41 6
6 41 42 7
7 42 43 8
8 43 44 9
9 44 45 10
10 45 46 11
11 46 47 12
12 47 48 13
13 48 49 14
14 49 50 15
15 50 51 16
16 51 52 17
17 52 53 18
18 53 54 19
19 54 55 20
20 55 56 21
21 56 57 22
22 57 58 23
23 58 59 24
24 59 60 25
25 60 61 26
26 61 62 27
27 62 63 28
28 63 64 29
29 64 65 30
30 65 66 31
31 66 67 32
32 67 68 33
33 68 69 34
35 70 71 36
36 71 72 37
37 72 73 38
38 73 74 39
39 74 75 40
40 75 76 41
41 76 77 42
42 77 78 43
43 78 79 44
44 79 80 45
45 80 81 46
46 81 82 47
47 82 83 48
48 83 84 49
49 84 85 50
50 85 86 51
51 86 87 52
52 87 88 53
53 88 89 54
54 89 90 55
55 90 91 56
56 91 92 57
57 92 93 58
58 93 94 59
59 94 95 60
60 95 96 61
61 96 97 62
62 97 98 63
63 98 99 64
64 99 100 65
65 100 101 66
66 101 102 67
67 102 103 68
68 103 104 69
70 105 106 71
71 106 107 72
72 107 108 73
73 108 109 74
74 109 110 75
75 110 111 76
76 111 112 77
77 112 113 78
78 113 114 79
79 114 115 80
80 115 116 81
81 116 117 82
82 117 118 83
83 118 119 84
84 119 120 85
85 120 121 86
86 121 122 87
87 122 123 88
88 123 124 89
89 124 125 90
90 125 126 91
91 126 127 92
92 127 128 93
93 128 129 94
94 129 130 95
95 130 131 96
96 131 132 97
97 132 133 98
98 133 134 99
99 134 135 100
100 135 136 101
101 136 137 102
102 137 138 103
103 138 139 104
        </DataArray>
        <DataArray type="Int32" Name="offsets" format="ascii">
4 8 12 16 20 24 28 32 36 40 44 48 52 56 60 64 68 72 76 80 84 88 92 96 100 104 108 112 116 120 124 128 132 136 140 144 148 152 156 160 164 168 172 176 180 184 188 192 196 200 204 208 212 216 220 224 228 232 236 240 244 248 252 256 260 264 268 272 276 280 284 288 292 296 300 304 308 312 316 320 324 328 332 336 340 344 348 352 356 360 364 368 372 376 380 384 388 392 396 400 404 408
        </DataArray>
        <DataArray type="Int32" Name="types" format="ascii">
9 9 9 9 9 9 9 9 9 9 9 9 9 9 9 9 9 9 9 9 9 9 9 9 9 9 9 9 9 9 9 9 9 9 9 9 9 9 9 9 9 9 9 9 9 9 9 9 9 9 9 9 9 9 9 9 9 9 9 9 9 9 9 9 9 9 9 9 9 9 9 9 9 9 9 9 9 9 9 9 9 9 9 9 9 9 9 9 9 9 9 9 9 9 9 9 9 9 9 9 9 9
        </DataArray>
      </Cells>
    </Piece>
  </UnstructuredGrid>
</VTKFile>
