<?xml version="1.0"?>
<VTKFile type="UnstructuredGrid" version="1.0" byte_order="LittleEndian">
  <UnstructuredGrid>
    <Piece NumberOfPoints="14" NumberOfCells="6">
      <PointData Scalars="scalars">
        <DataArray type="Float32" Name="cp1" format="ascii">
0.0 0.0 0.0 0.0 0.0 0.0 0.0 0.0 0.0 0.0 0.0 0.0 0.0 0.0
        </DataArray>
        <DataArray type="Float32" Name="cp2" format="ascii">
0.0 0.0 0.0 0.0 0.0 0.0 0.0 0.0 0.0 0.0 0.0 0.0 0.0 0.0
        </DataArray>
        <DataArray type="Float32" Name="cp3" format="ascii">
0.0 0.0 0.0 0.0 0.0 0.0 0.0 0.0 0.0 0.0 0.0 0.0 0.0 0.0
        </DataArray>
      </PointData>
      <Points>
        <DataArray type="Float32" Name="network11" NumberOfComponents="3" format="ascii">
302.0 3.0 41.05
2000.0 3.0 41.05
302.0 3.0 48.025
2000.0 3.0 48.025
302.0 3.0 55.0
2000.0 3.0 55.0
302.0 2.5607 55.0
2000.0 2.5607 55.0
302.0 1.5 55.0
2000.0 1.5 55.0
302.0 0.4393 55.0
2000.0 0.4393 55.0
302.0 0.0 55.0
2000.0 0.0 55.0
        </DataArray>
      </Points>
      <Cells>
        <DataArray type="Int32" Name="connectivity" format="ascii">
0 2 3 1
2 4 5 3
4 6 7 5
6 8 9 7
8 10 11 9
10 12 13 11
        </DataArray>
        <DataArray type="Int32" Name="offsets" format="ascii">
4 8 12 16 20 24
        </DataArray>
        <DataArray type="Int32" Name="types" format="ascii">
9 9 9 9 9 9
        </DataArray>
      </Cells>
    </Piece>
  </UnstructuredGrid>
</VTKFile>
