<?xml version="1.0"?>
<VTKFile type="UnstructuredGrid" version="1.0" byte_order="LittleEndian">
  <UnstructuredGrid>
    <Piece NumberOfPoints="70" NumberOfCells="34">
      <PointData Scalars="scalars">
        <DataArray type="Float32" Name="cp1" format="ascii">
0.0 0.0 0.0 0.0 0.0 0.0 0.0 0.0 0.0 0.0 0.0 0.0 0.0 0.0 0.0 0.0 0.0 0.0 0.0 0.0 0.0 0.0 0.0 0.0 0.0 0.0 0.0 0.0 0.0 0.0 0.0 0.0 0.0 0.0 0.0 0.0 0.0 0.0 0.0 0.0 0.0 0.0 0.0 0.0 0.0 0.0 0.0 0.0 0.0 0.0 0.0 0.0 0.0 0.0 0.0 0.0 0.0 0.0 0.0 0.0 0.0 0.0 0.0 0.0 0.0 0.0 0.0 0.0 0.0 0.0
        </DataArray>
        <DataArray type="Float32" Name="cp2" format="ascii">
0.0 0.0 0.0 0.0 0.0 0.0 0.0 0.0 0.0 0.0 0.0 0.0 0.0 0.0 0.0 0.0 0.0 0.0 0.0 0.0 0.0 0.0 0.0 0.0 0.0 0.0 0.0 0.0 0.0 0.0 0.0 0.0 0.0 0.0 0.0 0.0 0.0 0.0 0.0 0.0 0.0 0.0 0.0 0.0 0.0 0.0 0.0 0.0 0.0 0.0 0.0 0.0 0.0 0.0 0.0 0.0 0.0 0.0 0.0 0.0 0.0 0.0 0.0 0.0 0.0 0.0 0.0 0.0 0.0 0.0
        </DataArray>
        <DataArray type="Float32" Name="cp3" format="ascii">
0.0 0.0 0.0 0.0 0.0 0.0 0.0 0.0 0.0 0.0 0.0 0.0 0.0 0.0 0.0 0.0 0.0 0.0 0.0 0.0 0.0 0.0 0.0 0.0 0.0 0.0 0.0 0.0 0.0 0.0 0.0 0.0 0.0 0.0 0.0 0.0 0.0 0.0 0.0 0.0 0.0 0.0 0.0 0.0 0.0 0.0 0.0 0.0 0.0 0.0 0.0 0.0 0.0 0.0 0.0 0.0 0.0 0.0 0.0 0.0 0.0 0.0 0.0 0.0 0.0 0.0 0.0 0.0 0.0 0.0
        </DataArray>
      </PointData>
      <Points>
        <DataArray type="Float32" Name="network10" NumberOfComponents="3" format="ascii">
80.0 22.0 3.85
2000.0 22.0 3.85
80.0 27.2941 3.85
2000.0 27.2941 3.85
80.0 32.5882 3.85
2000.0 32.5882 3.85
80.0 37.8824 3.85
2000.0 37.8824 3.85
80.0 43.1765 3.85
2000.0 43.1765 3.85
80.0 48.4706 3.85
2000.0 48.4706 3.85
80.0 53.7647 3.85
2000.0 53.7647 3.85
80.0 59.0588 3.85
2000.0 59.0588 3.85
80.0 64.3529 3.85
2000.0 64.3529 3.85
80.0 69.6471 3.85
2000.0 69.6471 3.85
80.0 74.9412 3.85
2000.0 74.9412 3.85
80.0 80.2353 3.85
2000.0 80.2353 3.85
80.0 85.5294 3.85
2000.0 85.5294 3.85
80.0 90.8235 3.85
2000.0 90.8235 3.85
80.0 96.1176 3.85
2000.0 96.1176 3.85
80.0 101.412 3.85
2000.0 101.412 3.85
80.0 106.706 3.85
2000.0 106.706 3.85
80.0 112.0 3.85
2000.0 112.0 3.85
80.0 117.294 3.85
2000.0 117.294 3.85
80.0 122.588 3.85
2000.0 122.588 3.85
80.0 127.882 3.85
2000.0 127.882 3.85
80.0 133.176 3.85
2000.0 133.177 3.85
80.0 138.471 3.85
2000.0 138.471 3.85
80.0 143.765 3.85
2000.0 143.765 3.85
80.0 149.059 3.85
2000.0 149.059 3.85
80.0 154.353 3.85
2000.0 154.353 3.85
80.0 159.647 3.85
2000.0 159.647 3.85
80.0 164.941 3.85
2000.0 164.941 3.85
80.0 170.235 3.85
2000.0 170.235 3.85
80.0 175.529 3.85
2000.0 175.529 3.85
80.0 180.823 3.85
2000.0 180.823 3.85
80.0 186.118 3.85
2000.0 186.118 3.85
80.0 191.412 3.85
2000.0 191.412 3.85
80.0 196.706 3.85
2000.0 196.706 3.85
80.0 202.0 3.85
2000.0 202.0 3.85
        </DataArray>
      </Points>
      <Cells>
        <DataArray type="Int32" Name="connectivity" format="ascii">
0 2 3 1
2 4 5 3
4 6 7 5
6 8 9 7
8 10 11 9
10 12 13 11
12 14 15 13
14 16 17 15
16 18 19 17
18 20 21 19
20 22 23 21
22 24 25 23
24 26 27 25
26 28 29 27
28 30 31 29
30 32 33 31
32 34 35 33
34 36 37 35
36 38 39 37
38 40 41 39
40 42 43 41
42 44 45 43
44 46 47 45
46 48 49 47
48 50 51 49
50 52 53 51
52 54 55 53
54 56 57 55
56 58 59 57
58 60 61 59
60 62 63 61
62 64 65 63
64 66 67 65
66 68 69 67
        </DataArray>
        <DataArray type="Int32" Name="offsets" format="ascii">
4 8 12 16 20 24 28 32 36 40 44 48 52 56 60 64 68 72 76 80 84 88 92 96 100 104 108 112 116 120 124 128 132 136
        </DataArray>
        <DataArray type="Int32" Name="types" format="ascii">
9 9 9 9 9 9 9 9 9 9 9 9 9 9 9 9 9 9 9 9 9 9 9 9 9 9 9 9 9 9 9 9 9 9
        </DataArray>
      </Cells>
    </Piece>
  </UnstructuredGrid>
</VTKFile>
