# vtk DataFile Version 2.0
scalar
ASCII
DATASET UNSTRUCTURED_GRID
POINTS 2010 float
1.0 0.0 0.0
0.9971 0.0 0.0004
0.9883 0.0 0.0014
0.9738 0.0 0.0031
0.9538 0.0 0.0054
0.9284 0.0 0.0083
0.898 0.0 0.0116
0.863 0.0 0.0152
0.8237 0.0 0.0192
0.7806 0.0 0.0232
0.7342 0.0 0.0274
0.6851 0.0 0.0315
0.6338 0.0 0.0355
0.5809 0.0 0.0392
0.5271 0.0 0.0425
0.4729 0.0 0.0454
0.4191 0.0 0.0477
0.3662 0.0 0.0492
0.3149 0.0 0.05
0.2658 0.0 0.0498
0.2194 0.0 0.0486
0.1763 0.0 0.0465
0.137 0.0 0.0434
0.102 0.0 0.0393
0.0716 0.0 0.0344
0.0462 0.0 0.0286
0.0262 0.0 0.0222
0.0117 0.0 0.0153
0.0029 0.0 0.0079
0.0 0.0 0.0
0.0029 0.0 -0.0079
0.0117 0.0 -0.0153
0.0262 0.0 -0.0222
0.0462 0.0 -0.0286
0.0716 0.0 -0.0344
0.102 0.0 -0.0393
0.137 0.0 -0.0434
0.1763 0.0 -0.0465
0.2194 0.0 -0.0486
0.2658 0.0 -0.0498
0.3149 0.0 -0.05
0.3662 0.0 -0.0492
0.4191 0.0 -0.0477
0.4729 0.0 -0.0454
0.5271 0.0 -0.0425
0.5809 0.0 -0.0392
0.6338 0.0 -0.0355
0.6851 0.0 -0.0315
0.7342 0.0 -0.0274
0.7806 0.0 -0.0232
0.8237 0.0 -0.0192
0.863 0.0 -0.0152
0.898 0.0 -0.0116
0.9284 0.0 -0.0083
0.9538 0.0 -0.0054
0.9738 0.0 -0.0031
0.9883 0.0 -0.0014
0.9971 0.0 -0.0004
1.0 0.0 0.0
1.0 0.1034 0.0
0.9971 0.1034 0.0003
0.9883 0.1034 0.0012
0.9738 0.1034 0.0027
0.9537 0.1034 0.0047
0.9283 0.1034 0.0072
0.8979 0.1034 0.01
0.8628 0.1034 0.0132
0.8234 0.1034 0.0165
0.7803 0.1034 0.0199
0.7338 0.1034 0.0234
0.6846 0.1034 0.0267
0.6333 0.1034 0.0299
0.5803 0.1034 0.0329
0.5265 0.1034 0.0354
0.4723 0.1034 0.0374
0.4185 0.1034 0.0389
0.3656 0.1034 0.0396
0.3143 0.1034 0.0396
0.2651 0.1034 0.0387
0.2188 0.1034 0.0368
0.1757 0.1034 0.034
0.1364 0.1034 0.0303
0.1015 0.1034 0.0257
0.0712 0.1034 0.0203
0.0459 0.1034 0.0142
0.0259 0.1034 0.0075
0.0116 0.1034 0.0003
0.0029 0.1034 -0.0072
0.0001 0.1034 -0.0151
0.0032 0.1034 -0.0229
0.012 0.1034 -0.0302
0.0266 0.1034 -0.037
0.0468 0.1034 -0.0431
0.0722 0.1034 -0.0484
0.1027 0.1034 -0.0529
0.1378 0.1034 -0.0564
0.1771 0.1034 -0.0589
0.2202 0.1034 -0.0604
0.2666 0.1034 -0.0609
0.3158 0.1034 -0.0603
0.3671 0.1034 -0.0588
0.4199 0.1034 -0.0565
0.4737 0.1034 -0.0534
0.5278 0.1034 -0.0497
0.5815 0.1034 -0.0455
0.6343 0.1034 -0.041
0.6856 0.1034 -0.0363
0.7346 0.1034 -0.0314
0.781 0.1034 -0.0266
0.824 0.1034 -0.0218
0.8632 0.1034 -0.0173
0.8982 0.1034 -0.0131
0.9286 0.1034 -0.0094
0.9539 0.1034 -0.0061
0.9739 0.1034 -0.0035
0.9883 0.1034 -0.0016
0.9971 0.1034 -0.0004
1.0 0.1034 0.0
1.0 0.2069 0.0
0.9971 0.2069 0.0003
0.9883 0.2069 0.0012
0.9738 0.2069 0.0026
0.9537 0.2069 0.0045
0.9283 0.2069 0.0069
0.8978 0.2069 0.0096
0.8627 0.2069 0.0126
0.8234 0.2069 0.0157
0.7802 0.2069 0.019
0.7337 0.2069 0.0222
0.6845 0.2069 0.0254
0.6331 0.2069 0.0284
0.5802 0.2069 0.0311
0.5263 0.2069 0.0334
0.4721 0.2069 0.0352
0.4183 0.2069 0.0364
0.3654 0.2069 0.0369
0.3141 0.2069 0.0367
0.265 0.2069 0.0355
0.2186 0.2069 0.0335
0.1756 0.2069 0.0305
0.1363 0.2069 0.0266
0.1014 0.2069 0.0219
0.0711 0.2069 0.0163
0.0458 0.2069 0.0101
0.0259 0.2069 0.0034
0.0116 0.2069 -0.0039
0.003 0.2069 -0.0115
0.0002 0.2069 -0.0194
0.0033 0.2069 -0.0272
0.0122 0.2069 -0.0345
0.0268 0.2069 -0.0411
0.0469 0.2069 -0.0471
0.0724 0.2069 -0.0524
0.1029 0.2069 -0.0567
0.138 0.2069 -0.0601
0.1774 0.2069 -0.0625
0.2205 0.2069 -0.0638
0.2669 0.2069 -0.064
0.316 0.2069 -0.0632
0.3673 0.2069 -0.0615
0.4201 0.2069 -0.0589
0.4739 0.2069 -0.0556
0.528 0.2069 -0.0517
0.5817 0.2069 -0.0473
0.6345 0.2069 -0.0426
0.6857 0.2069 -0.0376
0.7348 0.2069 -0.0325
0.7811 0.2069 -0.0275
0.8241 0.2069 -0.0226
0.8633 0.2069 -0.0179
0.8983 0.2069 -0.0136
0.9286 0.2069 -0.0097
0.9539 0.2069 -0.0063
0.9739 0.2069 -0.0036
0.9883 0.2069 -0.0016
0.9971 0.2069 -0.0004
1.0 0.2069 0.0
1.0 0.3103 0.0
0.9971 0.3103 0.0003
0.9883 0.3103 0.0011
0.9738 0.3103 0.0025
0.9537 0.3103 0.0044
0.9283 0.3103 0.0067
0.8978 0.3103 0.0093
0.8627 0.3103 0.0122
0.8233 0.3103 0.0153
0.7801 0.3103 0.0184
0.7337 0.3103 0.0215
0.6845 0.3103 0.0246
0.6331 0.3103 0.0274
0.5801 0.3103 0.03
0.5262 0.3103 0.0321
0.4721 0.3103 0.0338
0.4182 0.3103 0.0349
0.3653 0.3103 0.0353
0.314 0.3103 0.0349
0.2649 0.3103 0.0336
0.2185 0.3103 0.0314
0.1755 0.3103 0.0284
0.1363 0.3103 0.0244
0.1013 0.3103 0.0195
0.071 0.3103 0.0139
0.0458 0.3103 0.0077
0.0259 0.3103 0.0008
0.0116 0.3103 -0.0065
0.003 0.3103 -0.0141
0.0002 0.3103 -0.022
0.0033 0.3103 -0.0298
0.0123 0.3103 -0.037
0.0269 0.3103 -0.0437
0.0471 0.3103 -0.0496
0.0726 0.3103 -0.0548
0.103 0.3103 -0.059
0.1382 0.3103 -0.0623
0.1775 0.3103 -0.0646
0.2207 0.3103 -0.0658
0.2671 0.3103 -0.0659
0.3162 0.3103 -0.065
0.3675 0.3103 -0.0632
0.4203 0.3103 -0.0605
0.4741 0.3103 -0.057
0.5281 0.3103 -0.0529
0.5819 0.3103 -0.0484
0.6346 0.3103 -0.0435
0.6858 0.3103 -0.0384
0.7349 0.3103 -0.0332
0.7812 0.3103 -0.0281
0.8242 0.3103 -0.023
0.8634 0.3103 -0.0182
0.8983 0.3103 -0.0138
0.9286 0.3103 -0.0099
0.9539 0.3103 -0.0064
0.9739 0.3103 -0.0037
0.9883 0.3103 -0.0017
0.9971 0.3103 -0.0004
1.0 0.3103 0.0
1.0 0.4138 0.0
0.9971 0.4138 0.0003
0.9883 0.4138 0.0011
0.9738 0.4138 0.0025
0.9537 0.4138 0.0043
0.9283 0.4138 0.0066
0.8978 0.4138 0.0092
0.8627 0.4138 0.012
0.8233 0.4138 0.015
0.7801 0.4138 0.018
0.7336 0.4138 0.0211
0.6844 0.4138 0.024
0.633 0.4138 0.0268
0.5801 0.4138 0.0292
0.5262 0.4138 0.0313
0.472 0.4138 0.0329
0.4181 0.4138 0.0339
0.3652 0.4138 0.0342
0.3139 0.4138 0.0337
0.2648 0.4138 0.0323
0.2185 0.4138 0.0301
0.1754 0.4138 0.0269
0.1362 0.4138 0.0228
0.1013 0.4138 0.0179
0.071 0.4138 0.0123
0.0458 0.4138 0.006
0.0259 0.4138 -0.0009
0.0116 0.4138 -0.0082
0.003 0.4138 -0.0158
0.0003 0.4138 -0.0238
0.0034 0.4138 -0.0315
0.0123 0.4138 -0.0388
0.027 0.4138 -0.0454
0.0472 0.4138 -0.0513
0.0727 0.4138 -0.0564
0.1031 0.4138 -0.0606
0.1383 0.4138 -0.0639
0.1776 0.4138 -0.0661
0.2208 0.4138 -0.0672
0.2672 0.4138 -0.0672
0.3163 0.4138 -0.0662
0.3676 0.4138 -0.0643
0.4204 0.4138 -0.0615
0.4742 0.4138 -0.0579
0.5282 0.4138 -0.0538
0.5819 0.4138 -0.0491
0.6347 0.4138 -0.0442
0.6859 0.4138 -0.039
0.7349 0.4138 -0.0337
0.7812 0.4138 -0.0284
0.8242 0.4138 -0.0233
0.8634 0.4138 -0.0185
0.8984 0.4138 -0.014
0.9286 0.4138 -0.01
0.9539 0.4138 -0.0065
0.9739 0.4138 -0.0037
0.9883 0.4138 -0.0017
0.9971 0.4138 -0.0004
1.0 0.4138 0.0
1.0 0.5172 0.0
0.9971 0.5172 0.0003
0.9883 0.5172 0.0011
0.9738 0.5172 0.0025
0.9537 0.5172 0.0043
0.9282 0.5172 0.0065
0.8978 0.5172 0.009
0.8627 0.5172 0.0118
0.8233 0.5172 0.0147
0.7801 0.5172 0.0177
0.7336 0.5172 0.0207
0.6844 0.5172 0.0236
0.633 0.5172 0.0263
0.58 0.5172 0.0287
0.5262 0.5172 0.0307
0.472 0.5172 0.0322
0.4181 0.5172 0.0331
0.3652 0.5172 0.0333
0.3139 0.5172 0.0328
0.2648 0.5172 0.0314
0.2184 0.5172 0.0291
0.1754 0.5172 0.0258
0.1362 0.5172 0.0217
0.1013 0.5172 0.0168
0.071 0.5172 0.0111
0.0458 0.5172 0.0047
0.0259 0.5172 -0.0021
0.0116 0.5172 -0.0095
0.003 0.5172 -0.0171
0.0003 0.5172 -0.025
0.0034 0.5172 -0.0328
0.0124 0.5172 -0.04
0.027 0.5172 -0.0466
0.0472 0.5172 -0.0525
0.0727 0.5172 -0.0576
0.1032 0.5172 -0.0618
0.1384 0.5172 -0.065
0.1777 0.5172 -0.0671
0.2209 0.5172 -0.0682
0.2673 0.5172 -0.0682
0.3164 0.5172 -0.0671
0.3677 0.5172 -0.0651
0.4205 0.5172 -0.0622
0.4742 0.5172 -0.0586
0.5283 0.5172 -0.0544
0.582 0.5172 -0.0497
0.6348 0.5172 -0.0446
0.686 0.5172 -0.0394
0.735 0.5172 -0.034
0.7812 0.5172 -0.0287
0.8242 0.5172 -0.0236
0.8634 0.5172 -0.0187
0.8984 0.5172 -0.0141
0.9287 0.5172 -0.0101
0.9539 0.5172 -0.0066
0.9739 0.5172 -0.0038
0.9883 0.5172 -0.0017
0.9971 0.5172 -0.0004
1.0 0.5172 0.0
1.0 0.6207 0.0
0.9971 0.6207 0.0003
0.9883 0.6207 0.0011
0.9738 0.6207 0.0024
0.9537 0.6207 0.0042
0.9282 0.6207 0.0064
0.8978 0.6207 0.0089
0.8626 0.6207 0.0117
0.8233 0.6207 0.0146
0.7801 0.6207 0.0175
0.7336 0.6207 0.0205
0.6844 0.6207 0.0233
0.633 0.6207 0.0259
0.58 0.6207 0.0283
0.5261 0.6207 0.0302
0.4719 0.6207 0.0317
0.4181 0.6207 0.0326
0.3652 0.6207 0.0327
0.3139 0.6207 0.0321
0.2647 0.6207 0.0307
0.2184 0.6207 0.0283
0.1754 0.6207 0.0251
0.1362 0.6207 0.0209
0.1012 0.6207 0.0159
0.071 0.6207 0.0102
0.0458 0.6207 0.0038
0.0259 0.6207 -0.0031
0.0116 0.6207 -0.0104
0.0031 0.6207 -0.0181
0.0003 0.6207 -0.026
0.0035 0.6207 -0.0338
0.0124 0.6207 -0.041
0.0271 0.6207 -0.0476
0.0473 0.6207 -0.0534
0.0728 0.6207 -0.0585
0.1033 0.6207 -0.0626
0.1384 0.6207 -0.0658
0.1778 0.6207 -0.0679
0.2209 0.6207 -0.0689
0.2673 0.6207 -0.0688
0.3165 0.6207 -0.0678
0.3677 0.6207 -0.0657
0.4205 0.6207 -0.0628
0.4743 0.6207 -0.0591
0.5283 0.6207 -0.0548
0.5821 0.6207 -0.0501
0.6348 0.6207 -0.045
0.686 0.6207 -0.0397
0.735 0.6207 -0.0343
0.7813 0.6207 -0.0289
0.8243 0.6207 -0.0237
0.8634 0.6207 -0.0188
0.8984 0.6207 -0.0142
0.9287 0.6207 -0.0101
0.9539 0.6207 -0.0066
0.9739 0.6207 -0.0038
0.9884 0.6207 -0.0017
0.9971 0.6207 -0.0004
1.0 0.6207 0.0
1.0 0.7241 0.0
0.9971 0.7241 0.0003
0.9883 0.7241 0.0011
0.9738 0.7241 0.0024
0.9537 0.7241 0.0042
0.9282 0.7241 0.0064
0.8978 0.7241 0.0089
0.8626 0.7241 0.0116
0.8232 0.7241 0.0144
0.7801 0.7241 0.0174
0.7336 0.7241 0.0203
0.6843 0.7241 0.0231
0.6329 0.7241 0.0257
0.58 0.7241 0.028
0.5261 0.7241 0.0299
0.4719 0.7241 0.0313
0.418 0.7241 0.0322
0.3651 0.7241 0.0323
0.3138 0.7241 0.0316
0.2647 0.7241 0.0301
0.2184 0.7241 0.0278
0.1754 0.7241 0.0245
0.1362 0.7241 0.0203
0.1012 0.7241 0.0153
0.071 0.7241 0.0095
0.0458 0.7241 0.0031
0.0259 0.7241 -0.0038
0.0116 0.7241 -0.0111
0.0031 0.7241 -0.0188
0.0004 0.7241 -0.0267
0.0035 0.7241 -0.0345
0.0125 0.7241 -0.0417
0.0271 0.7241 -0.0483
0.0473 0.7241 -0.0541
0.0728 0.7241 -0.0591
0.1033 0.7241 -0.0633
0.1385 0.7241 -0.0664
0.1778 0.7241 -0.0685
0.221 0.7241 -0.0695
0.2674 0.7241 -0.0694
0.3165 0.7241 -0.0682
0.3678 0.7241 -0.0662
0.4206 0.7241 -0.0632
[...]
POINT_DATA 2010
SCALARS cp1 float
LOOKUP_TABLE default
0.423469
0.33613
0.222213
0.157143
0.0984033
0.0448924
-0.00206118
-0.0482054
-0.0921264
-0.132323
-0.175926
-0.218874
-0.264368
-0.314162
-0.362254
-0.415966
-0.475654
-0.536891
-0.607863
-0.682965
-0.759572
-0.851634
-0.960171
-1.08913
-1.25594
-1.48941
-1.86087
-2.70387
-3.77919
-1.62965
1.34816
1.36191
0.85534
0.579231
0.393601
0.262863
0.169304
0.103832
0.0580688
0.0244051
0.00534149
-0.00431557
-0.0105583
-0.0101729
-0.00541376
0.000198757
0.0065125
0.0154125
0.0278668
0.0403574
0.0552411
0.0757901
0.0962896
0.120301
0.156091
0.196095
0.242578
0.339123
0.414686
0.427622
0.350006
0.239197
0.16355
0.101471
0.0463269
-0.00227733
-0.0483824
-0.0922041
-0.134188
-0.177521
-0.220989
-0.267374
-0.317452
-0.36773
-0.422304
-0.482469
-0.546968
-0.619836
-0.698207
-0.782251
-0.880883
-0.998085
-1.1392
-1.32008
-1.57852
-1.97448
-2.56718
-2.64047
-0.622596
1.41278
1.21181
0.811154
0.553932
0.377756
0.254361
0.166578
0.103498
0.0588383
0.0278097
0.00886227
-0.00216326
-0.00800856
-0.00819855
-0.00447088
0.00107054
0.00767155
0.0172087
0.0292475
0.041565
0.0573474
0.0773231
0.0979324
0.123629
0.160459
0.204398
0.261036
0.354124
0.420427
0.426439
0.344289
0.232382
0.159112
0.0978928
0.0432708
-0.00481676
-0.0502636
-0.0939359
-0.135946
-0.178689
-0.222714
-0.269498
-0.319088
-0.369831
-0.424808
-0.485329
-0.551066
-0.624346
-0.70202
-0.787984
-0.887856
-1.00343
-1.13943
-1.31105
-1.55373
-1.9086
-2.48723
-2.82466
-0.947557
1.3579
1.22959
0.78609
0.525595
0.35407
0.238054
0.155954
0.0952366
0.0531142
0.025461
0.00785185
-0.00355515
-0.00869656
-0.00818118
-0.0046064
0.000718875
0.00749239
0.0177144
0.0296224
0.0411027
0.05716
0.0773783
0.0971725
0.122275
0.159492
0.202399
0.25761
0.35451
0.425933
0.42088
0.340952
0.232047
0.158692
0.0967013
0.0424491
-0.00548703
-0.0507377
-0.0947995
-0.136354
-0.178877
-0.223894
-0.270378
-0.318686
-0.369475
-0.425166
-0.486116
-0.552223
-0.623893
-0.699438
-0.785562
-0.88447
-0.99439
-1.12539
-1.29708
-1.53632
-1.88478
-2.46661
-2.80113
-0.767628
1.40224
1.21279
0.776402
0.517592
0.347577
0.232176
0.14961
0.0891781
0.0482373
0.0225188
0.00544695
-0.0063586
-0.0106763
-0.00907771
-0.00539481
-6.04602e-06
0.00709166
0.0171765
0.0289831
0.0412299
0.0574301
0.0771576
0.0973243
0.122847
0.16
0.201931
0.257026
0.356555
0.429715
0.419513
0.33998
0.23151
0.156946
0.0951677
0.0420348
-0.00610444
-0.0513535
-0.0947951
-0.136077
-0.179297
-0.224211
-0.270199
-0.318059
-0.369048
-0.425182
-0.485671
-0.55096
-0.621916
-0.698154
-0.783668
-0.879177
-0.985844
-1.11721
-1.28906
-1.52158
-1.86432
-2.44684
-2.77027
-0.700256
1.40563
1.20379
0.768
0.510652
0.342322
0.226637
0.143833
0.0849456
0.0447972
0.0191715
0.0026374
-0.00843585
-0.0121172
-0.0104473
-0.00693997
-0.000894149
0.00656568
0.0158133
0.0282602
0.0421987
0.0573588
0.0757625
0.0975266
0.123613
0.159455
0.201436
0.258073
0.358778
0.432151
0.419384
0.338508
0.229207
0.155007
0.0940502
0.0421207
-0.00572695
-0.0517202
-0.0945268
-0.135714
-0.179489
-0.223706
-0.269255
-0.317728
-0.368582
-0.424448
-0.484364
-0.547853
-0.618703
-0.69664
-0.781172
-0.873463
-0.979444
-1.11192
-1.27956
-1.50494
-1.84974
-2.42844
-2.72944
-0.672951
1.40854
1.19553
0.762117
0.505337
0.337283
0.220986
0.138983
0.0816071
0.0419195
0.015822
-0.000601589
-0.0103979
-0.0133987
-0.0119234
-0.00860651
-0.0023891
0.0057764
0.0148569
0.0276362
0.0423968
0.0564838
0.0744031
0.0980258
0.124896
0.158517
0.200278
0.259814
0.361374
0.433683
0.41837
0.336147
0.22751
0.155902
0.0949077
0.0423204
-0.00585211
-0.0518494
-0.0938595
-0.135639
-0.179644
-0.223024
-0.268121
-0.316726
-0.36707
-0.422822
-0.48349
-0.545702
-0.614769
-0.692595
-0.777131
-0.869976
-0.975665
-1.10647
-1.2692
-1.48965
-1.83794
-2.4105
-2.69071
-0.635029
1.41571
1.18879
0.753536
0.498851
0.33224
0.2161
0.135128
0.0781322
0.0389462
0.0132382
-0.00329404
-0.0128463
-0.0155353
-0.0136541
-0.0100576
-0.00390287
0.00507316
0.0143369
0.0263939
0.0412604
0.0557671
0.0740366
0.098141
0.125415
0.158063
0.199822
0.26127
0.361937
0.434019
0.418243
0.335025
0.226741
0.156254
0.0950088
0.0418969
-0.00672678
-0.0514515
-0.092521
-0.134939
-0.178831
-0.222454
-0.26761
-0.315165
-0.365
-0.420554
-0.481602
-0.544211
-0.6119
-0.687552
-0.772319
-0.865782
-0.971274
-1.10021
-1.25927
-1.47774
-1.82622
-2.39392
-2.65284
-0.601633
1.41355
1.18199
0.747533
0.493298
0.327668
0.211385
0.131177
0.0750868
0.035305
0.0101244
-0.00532041
-0.0149765
-0.0179025
-0.0158754
-0.0118356
-0.00511121
0.00434748
0.0137419
0.0254877
0.0399265
0.0546983
0.0735414
0.0974551
0.124813
0.157571
0.200966
0.263139
0.362166
0.434247
0.418636
0.335027
0.226206
0.154809
0.0938302
0.0419345
-0.00635398
-0.0506781
-0.0917588
-0.133723
-0.176979
-0.221608
-0.266875
-0.313402
-0.363075
-0.418584
-0.478472
-0.541098
-0.609357
-0.684068
-0.767397
-0.859557
-0.965345
-1.09388
-1.25146
-1.46904
-1.81145
-2.3708
-2.61005
-0.559694
1.41044
1.17609
0.742943
0.48803
0.321164
0.206011
0.12721
0.0720196
0.0319353
0.00671401
-0.00762126
-0.017024
-0.0203965
-0.018085
-0.0132318
-0.00643475
0.00273824
0.0126165
0.0249126
0.0390256
0.0539337
0.0729583
0.0963393
0.123711
0.157552
0.202185
0.264637
0.362578
0.434191
0.418655
0.334939
0.22543
0.154161
0.0942195
0.0422997
-0.00544558
-0.0494305
-0.091716
-0.133245
-0.175306
-0.219647
-0.265319
-0.311782
-0.36098
-0.416514
-0.475507
-0.537233
-0.605679
-0.68077
-0.763165
-0.853313
-0.957858
-1.08616
-1.24482
-1.46034
-1.79442
-2.34369
-2.57916
-0.540265
1.41586
1.16786
0.735589
0.481639
0.315576
0.201664
0.122828
0.0681372
0.0289232
0.00365587
-0.0106424
-0.0195043
-0.022877
-0.0199262
-0.0146371
-0.00856794
0.000680813
0.0116608
0.0240327
0.0378019
0.0534833
0.0729677
0.0957166
0.122761
0.15737
0.201553
0.264473
0.363678
0.434178
0.418586
0.334587
0.224061
0.153486
0.0960766
0.0433899
-0.0049062
-0.0481544
-0.0908605
-0.13312
-0.17385
-0.216803
-0.263395
-0.310272
-0.358672
-0.413447
-0.47207
-0.533981
-0.602235
-0.676343
-0.758078
-0.847984
-0.950912
-1.07807
-1.2366
-1.45029
-1.77774
-2.31366
-2.54097
-0.509929
1.42113
1.15897
0.727713
0.476111
0.310999
0.197508
0.117924
0.0636454
0.0259196
0.000610114
-0.0140932
-0.0219719
-0.0249026
-0.0221049
-0.0170156
-0.0110263
-0.00111084
0.0110583
0.0231725
0.0359078
0.0520464
0.0725301
0.0956437
0.123205
0.157287
0.198784
0.263414
0.365681
0.434913
0.418599
0.334546
0.223264
0.152735
0.097293
0.0452101
-0.00453115
-0.0474504
-0.0888312
-0.131572
-0.172855
-0.21489
-0.260629
-0.308101
-0.356638
-0.410166
-0.468219
-0.530401
-0.598765
-0.671673
-0.751525
-0.841818
-0.944908
-1.07007
-1.22655
-1.43995
-1.76213
-2.28433
-2.50597
-0.482792
1.4303
1.15177
0.720044
0.469253
0.305468
0.192998
0.113562
0.0588059
0.0221916
-0.00247524
-0.0175213
-0.0247705
-0.0269186
-0.0246901
-0.0194952
-0.0128816
-0.00316021
0.00955907
0.0219799
0.0345127
0.0507536
0.071199
0.0950656
0.123889
0.156736
0.196861
0.263738
0.366968
0.435018
0.418854
0.334884
0.223469
0.152495
0.0973919
0.0463891
-0.00347728
-0.0468121
-0.0869568
-0.129109
-0.171853
-0.21403
-0.257643
-0.30457
-0.3541
-0.406901
-0.4641
-0.526404
-0.594331
-0.666825
-0.745211
-0.834592
-0.938762
-1.06176
-1.21588
-1.42763
-1.74239
-2.25733
-2.46751
-0.443497
1.43856
1.14447
0.712262
0.461562
0.298692
0.187406
0.109388
0.0545219
0.0181018
-0.0059454
-0.0213353
-0.0283049
-0.0294632
-0.027369
-0.0214949
-0.0142886
-0.00543114
0.00712533
0.020066
0.0335658
0.0499729
0.0701076
0.094698
0.122952
0.154452
0.196669
0.265557
0.367551
0.434955
0.419242
0.334872
0.223494
0.152856
0.096773
0.0465419
-0.00153409
-0.0452144
-0.0858243
-0.12715
-0.169439
-0.212437
-0.255803
-0.300569
-0.349951
-0.403109
-0.459993
-0.522479
-0.589002
-0.660919
-0.739507
-0.827799
-0.930936
-1.05167
-1.20436
-1.41386
-1.72179
-2.2309
-2.4324
-0.399148
1.43842
1.13499
0.703972
0.454541
0.291445
0.180855
0.104051
0.0504166
0.0142019
-0.0101785
-0.025633
-0.031817
-0.0324732
-0.0303221
-0.0235031
-0.0159634
-0.00800398
0.00448632
0.0183143
0.0323114
0.048957
0.0697121
0.0939062
0.12074
0.152944
0.197511
0.266624
0.367695
0.435167
0.419051
0.333871
0.223777
0.155087
0.0970111
0.0459683
0.000230863
-0.0431115
-0.085025
-0.125645
-0.165884
-0.209254
-0.253545
-0.296878
-0.345982
-0.399667
-0.455777
-0.51722
-0.58248
-0.654377
-0.733917
-0.821369
-0.921229
-1.03985
-1.1924
-1.40026
-1.70102
-2.19947
-2.38534
-0.372761
1.44261
1.12331
0.694891
0.446162
0.284199
0.173796
0.0975989
0.0451005
0.00960762
-0.0147148
-0.0295143
-0.0352441
-0.0358633
-0.0333128
-0.0261656
-0.0182563
-0.0107772
0.00165821
0.0167085
0.0311593
0.0481836
0.0686543
0.0916935
0.11917
0.153275
0.198369
0.266477
0.367498
0.435472
0.419087
0.332519
0.224513
0.158973
0.0981122
0.0456797
0.00185842
-0.0415162
-0.0838472
-0.123686
-0.162863
-0.20534
-0.249684
-0.293508
-0.342529
-0.395468
-0.450886
-0.511226
-0.575331
-0.647414
-0.727112
-0.814326
-0.911975
-1.02818
-1.17813
-1.38242
-1.67848
-2.16788
-2.34079
-0.32527
1.44145
1.11346
0.684455
0.437728
0.275842
0.166524
0.0911367
0.0388549
0.00400161
-0.0190327
-0.0328997
-0.0393931
-0.0401225
-0.0366086
-0.0294212
-0.0207454
-0.0131014
-0.00111381
0.0142799
0.0293442
0.0469836
0.0669487
0.0902563
0.119062
0.153825
0.197873
0.263532
0.366492
0.438253
0.420046
0.331899
0.22419
0.160586
0.0997345
0.0471424
0.00363761
-0.0399883
-0.0811143
-0.120778
-0.160893
-0.201644
-0.244963
-0.290108
-0.338214
-0.389594
-0.445644
-0.505134
-0.568425
-0.640068
-0.718355
-0.805366
-0.903058
-1.01687
-1.16139
-1.35951
-1.65481
-2.14235
-2.2817
-0.269299
1.44568
1.10219
0.673505
0.427412
0.266229
0.15882
0.0850629
0.0327347
-0.00223544
-0.0239157
-0.0369682
-0.0440447
-0.0444426
-0.0405443
-0.0332895
-0.0236489
-0.0152396
-0.00373012
0.0114285
0.0270622
0.0445265
0.0650074
0.0901801
0.11933
0.15415
0.196419
0.258099
0.364789
0.443369
0.418058
0.33177
0.225353
0.161141
0.102054
0.0499726
0.00467479
-0.0382042
-0.0778435
-0.117873
-0.158538
-0.197928
-0.240101
-0.285498
-0.332635
-0.38366
-0.43971
-0.497994
-0.561753
-0.632576
-0.707723
-0.794106
-0.892217
-1.00456
-1.14609
-1.33906
-1.63137
-2.11056
-2.21772
-0.220857
1.44181
1.08976
0.661039
0.415762
0.256487
0.150673
0.078094
0.0265471
-0.00894225
-0.0300571
-0.042491
-0.0488352
-0.0480783
-0.0445275
-0.0376406
-0.0273796
-0.0177229
-0.00653251
0.00838942
0.0252042
0.0421338
0.0627242
0.0890216
0.118174
0.154119
0.196221
0.255438
0.363744
0.445504
0.413681
0.332264
0.229779
0.162743
0.102915
0.0518042
0.00619009
-0.0355637
-0.0750972
-0.115287
-0.154874
-0.193865
-0.235605
-0.279347
-0.325599
-0.37739
-0.433215
-0.490609
-0.554133
-0.622991
-0.696531
-0.782397
-0.87862
-0.989735
-1.13084
-1.32026
-1.60466
-2.06465
-2.14815
-0.185806
1.44048
1.07475
0.646207
0.403536
0.247027
0.141447
0.0694655
0.0189682
-0.0158575
-0.0367791
-0.0490201
-0.0541614
-0.0525603
-0.0488232
-0.0417551
-0.0313921
-0.0205496
-0.00939602
0.00491977
0.0226647
0.0402988
0.0608804
0.0867078
0.115472
0.152649
0.196755
0.256119
0.363306
0.444479
0.411302
0.332536
0.232445
0.162931
0.102124
0.0530854
0.00885342
-0.0319282
-0.0716608
-0.112147
-0.150715
-0.189143
-0.230731
-0.273213
-0.318186
-0.369404
-0.425473
-0.48291
-0.544401
-0.611821
-0.68595
-0.769708
-0.862506
-0.973091
-1.11249
-1.29691
-1.5733
-2.01314
-2.07405
-0.134586
1.44236
1.05851
0.630339
0.390446
0.235306
0.130784
0.0596413
0.010324
-0.022954
-0.0436585
-0.0559871
-0.0598974
-0.0581216
-0.0540698
-0.0461678
-0.0358227
-0.0240777
-0.0120377
0.0017731
0.0191156
0.0374657
0.0589457
0.0849508
0.1134
0.150198
0.196236
0.257307
0.363157
0.4439
0.410644
0.332312
0.232476
0.161995
0.10196
0.0552322
0.0115192
-0.0290905
-0.0676461
-0.107409
-0.145917
-0.183653
-0.224307
-0.266757
-0.311207
-0.360433
-0.415759
-0.473241
-0.532776
-0.599843
-0.674439
-0.755211
-0.845063
-0.954429
-1.09089
-1.27027
-1.5395
-1.95808
-1.98788
-0.0643835
1.4468
1.03973
0.613978
0.373415
0.22127
0.119344
0.0491919
0.000657236
-0.031087
-0.0513207
-0.06324
-0.066031
-0.0639182
-0.059899
-0.0515548
-0.0408489
-0.028682
-0.0154411
-0.000980257
0.0155646
0.03374
0.0563115
0.0828427
0.111553
0.148817
0.195895
0.257862
0.363101
0.443422
0.409319
0.331582
0.231568
0.161826
0.103516
0.0573362
0.0135541
-0.0267653
-0.0634534
-0.101175
-0.14012
-0.178036
-0.216881
-0.258624
-0.303335
-0.350808
-0.404437
-0.461554
-0.519765
-0.586172
-0.659983
-0.739275
-0.827026
-0.933459
-1.0675
-1.24046
-1.49945
-1.89821
-1.90109
-0.000547302
1.45179
1.01799
0.593244
0.356052
0.206467
0.10642
0.0373942
-0.0101317
-0.0407817
-0.0598292
-0.0704508
-0.0730143
-0.0708339
-0.0663226
-0.0571576
-0.0456445
-0.0338702
-0.0204694
-0.00466155
0.0122922
0.0299534
0.0526689
0.0797899
0.109528
0.1479
0.194714
0.257746
0.36463
0.445238
0.412411
0.333705
0.232022
0.163096
0.106592
0.0598239
0.016153
-0.0229145
-0.0587231
-0.0954665
-0.133967
-0.171087
-0.208263
-0.249
-0.293418
-0.34001
-0.391723
-0.447784
-0.50563
-0.570754
-0.642167
-0.719357
-0.806314
-0.910989
-1.04101
-1.20493
-1.45197
-1.83439
-1.8036
0.0757941
1.44657
0.99219
0.570484
0.338394
0.19065
0.0906607
0.0231685
-0.0216464
-0.0514718
-0.0692234
-0.0784695
-0.0811973
-0.0789194
-0.0729828
-0.0628144
-0.0508369
-0.0393335
-0.026293
-0.0100396
0.00811307
0.0258946
0.0479118
0.0765802
0.108038
0.14467
0.189955
0.253765
0.358844
0.436977
0.420158
0.338449
0.235071
0.166344
0.109154
0.0625421
0.0205292
-0.0180541
-0.0540862
-0.0900646
-0.126704
-0.162025
-0.198473
-0.238095
-0.28107
-0.327262
-0.377245
-0.43186
-0.48946
-0.552327
-0.620922
-0.696055
-0.782289
-0.884954
-1.01055
-1.16641
-1.39835
-1.76451
-1.70127
0.167399
1.44672
0.964028
0.545439
0.316347
0.172085
0.0737697
0.00811377
-0.0347016
-0.0631617
-0.0800804
-0.0882751
-0.0901195
-0.086886
-0.0796254
-0.0694948
-0.057601
-0.0452426
-0.0322002
-0.0165707
0.00254071
0.0212166
0.0427878
0.0728092
0.104721
0.139091
0.184864
0.246259
0.342267
0.414525
0.418718
0.336732
0.234601
0.168721
0.110937
0.064638
0.024931
-0.0134461
-0.0488567
-0.0826908
-0.117608
-0.151785
-0.187955
-0.226161
-0.266337
-0.310945
-0.359636
-0.413381
-0.469723
-0.529681
-0.596459
-0.670295
-0.754862
-0.85343
-0.973734
-1.12303
-1.34071
-1.6852
-1.58389
0.251369
1.43886
0.928546
0.514499
0.289491
0.149065
0.0555751
-0.0079262
-0.0494142
-0.0763667
-0.0923897
-0.0992466
-0.099412
-0.0950186
-0.086793
-0.0771077
-0.0654886
-0.051933
-0.038805
-0.0236113
-0.00391706
0.0150286
0.0367826
0.066668
0.0980727
0.134259
0.182986
0.242368
0.333467
0.404712
0.420093
0.339256
0.234064
0.167857
0.113095
0.0676284
0.0280246
-0.00933528
-0.042344
-0.0737678
-0.107325
-0.140476
-0.175054
-0.211783
-0.249255
-0.290753
-0.338216
-0.390999
-0.445166
-0.502271
-0.567459
-0.639973
-0.721404
-0.815111
-0.929509
-1.0732
-1.27722
-1.58763
-1.44097
0.338889
1.42786
0.888973
0.478425
0.257968
0.123581
0.0332265
-0.0264594
-0.0655713
-0.091125
-0.105659
-0.110571
-0.109091
-0.103676
-0.0945286
-0.0848811
-0.0740441
-0.0604439
-0.0469847
-0.0313657
-0.0122754
0.00644156
0.0291425
0.0580856
0.0894408
0.128319
0.179366
0.238408
0.329014
0.400923
0.43279
0.350573
0.236207
0.164675
0.113904
0.0699553
0.0311019
-0.00411083
-0.0351153
-0.0640031
-0.0950691
-0.126921
-0.158403
-0.192778
-0.228967
-0.267704
-0.312417
-0.362425
-0.414516
-0.468769
-0.530505
-0.601202
-0.67871
-0.767576
-0.876697
-1.01314
-1.20054
-1.47324
-1.27965
0.454908
1.40929
0.837416
0.433504
0.222346
0.0934022
0.00663432
-0.0485887
-0.0842464
-0.107712
-0.11919
-0.121316
-0.118398
-0.112405
-0.103168
-0.0931275
-0.0827928
-0.0701207
-0.0566623
-0.0414455
-0.024207
-0.00523068
0.0186771
0.0466764
0.0785213
0.118059
0.169113
0.229537
0.319867
0.389808
0.441637
0.351169
0.23444
0.161512
0.113499
0.071559
0.0368278
0.00440902
-0.0256855
-0.0519643
-0.0800397
-0.110183
-0.138365
-0.169278
-0.20434
-0.240442
-0.280291
-0.325883
-0.375175
-0.425612
-0.482172
-0.549675
-0.624207
-0.708393
-0.810397
-0.936042
-1.10669
-1.34352
-1.08629
0.584092
1.38135
0.772557
0.379044
0.176089
0.0536901
-0.0263399
-0.0746415
-0.105052
-0.124355
-0.131874
-0.131119
-0.126865
-0.120649
-0.112019
-0.102013
-0.0916437
-0.0803281
-0.0685272
-0.0552842
-0.040529
-0.0221081
0.00153475
0.0287849
0.0622626
0.104739
0.15943
0.22587
0.32222
0.399746
0.297259
0.240489
0.165707
0.117327
0.0806641
0.0463343
0.0182619
-0.00905239
-0.0344571
-0.055834
-0.0785701
-0.103401
-0.126526
-0.151567
-0.181246
-0.21135
-0.243806
-0.281877
-0.323082
-0.365075
-0.412109
-0.469624
-0.534001
-0.606663
-0.695422
-0.805959
-0.949873
-1.09953
-0.743033
0.679315
1.25271
0.671302
0.296466
0.106564
-0.00143829
-0.0674444
-0.104603
-0.126699
-0.140311
-0.145084
-0.143035
-0.138575
-0.13308
-0.126054
-0.118351
-0.110009
-0.102013
-0.094769
-0.0865981
-0.0783312
-0.0685262
-0.0563232
-0.0425438
-0.0235471
0.00542248
0.0507796
0.121182
0.236225
0.327248
0.0398533
0.034803
0.0281595
0.030429
0.0165454
-0.00597318
-0.0245124
-0.0443054
-0.0618073
-0.0747723
-0.089569
-0.106875
-0.122403
-0.139162
-0.161188
-0.181978
-0.204601
-0.233596
-0.263455
-0.292275
-0.324891
-0.367217
-0.413675
-0.464817
-0.531997
-0.620137
-0.753696
-0.991154
-0.68082
0.979258
1.42194
0.470983
0.102803
-0.0234828
-0.0879686
-0.125418
-0.143301
-0.153
-0.159981
-0.16201
-0.158047
-0.153725
-0.149949
-0.144933
-0.140989
-0.13595
-0.132562
-0.131941
-0.130609
-0.132451
-0.13711
-0.14475
-0.156716
-0.168686
-0.173624
-0.160459
-0.108268
0.0428592
0.169431
-35.6649
-22.5019
-5.96924
-3.31295
-1.86973
-1.1215
-0.751791
-0.540552
-0.406754
-0.32827
-0.280643
-0.251632
-0.230355
-0.220929
-0.223209
-0.227375
-0.237716
-0.254515
-0.273678
-0.295111
-0.318138
-0.348782
-0.380768
-0.410892
-0.453585
-0.506443
-0.578884
-0.760101
-0.346656
0.363889
-35.5369
-21.0946
-7.07152
-3.68879
-2.25734
-1.50216
-1.07754
-0.818432
-0.647357
-0.534236
-0.456691
-0.40051
-0.359029
-0.332878
-0.317824
-0.307303
-0.303838
-0.307034
-0.313443
-0.322117
-0.333309
-0.34972
-0.367481
-0.386442
-0.414212
-0.449648
-0.494372
-0.563027
-0.249156
0.421388
-34.6416
-19.9216
-6.54611
-3.76541
-2.50193
-1.77447
-1.32161
-1.02324
-0.82286
-0.683278
-0.582565
-0.507862
-0.453262
-0.415568
-0.38801
-0.366896
-0.354272
-0.348054
-0.345235
-0.344471
-0.346763
-0.353562
-0.361228
-0.370283
-0.385058