# vtk DataFile Version 2.0
scalar
ASCII
DATASET UNSTRUCTURED_GRID
POINTS 2010 float
1.0 0.0 0.0
0.9971 0.0 0.0004
0.9883 0.0 0.0014
0.9738 0.0 0.0031
0.9538 0.0 0.0054
0.9284 0.0 0.0083
0.898 0.0 0.0116
0.863 0.0 0.0152
0.8237 0.0 0.0192
0.7806 0.0 0.0232
0.7342 0.0 0.0274
0.6851 0.0 0.0315
0.6338 0.0 0.0355
0.5809 0.0 0.0392
0.5271 0.0 0.0425
0.4729 0.0 0.0454
0.4191 0.0 0.0477
0.3662 0.0 0.0492
0.3149 0.0 0.05
0.2658 0.0 0.0498
0.2194 0.0 0.0486
0.1763 0.0 0.0465
0.137 0.0 0.0434
0.102 0.0 0.0393
0.0716 0.0 0.0344
0.0462 0.0 0.0286
0.0262 0.0 0.0222
0.0117 0.0 0.0153
0.0029 0.0 0.0079
0.0 0.0 0.0
0.0029 0.0 -0.0079
0.0117 0.0 -0.0153
0.0262 0.0 -0.0222
0.0462 0.0 -0.0286
0.0716 0.0 -0.0344
0.102 0.0 -0.0393
0.137 0.0 -0.0434
0.1763 0.0 -0.0465
0.2194 0.0 -0.0486
0.2658 0.0 -0.0498
0.3149 0.0 -0.05
0.3662 0.0 -0.0492
0.4191 0.0 -0.0477
0.4729 0.0 -0.0454
0.5271 0.0 -0.0425
0.5809 0.0 -0.0392
0.6338 0.0 -0.0355
0.6851 0.0 -0.0315
0.7342 0.0 -0.0274
0.7806 0.0 -0.0232
0.8237 0.0 -0.0192
0.863 0.0 -0.0152
0.898 0.0 -0.0116
0.9284 0.0 -0.0083
0.9538 0.0 -0.0054
0.9738 0.0 -0.0031
0.9883 0.0 -0.0014
0.9971 0.0 -0.0004
1.0 0.0 0.0
1.0 0.1034 0.0
0.9971 0.1034 0.0004
0.9883 0.1034 0.0014
0.9738 0.1034 0.0031
0.9538 0.1034 0.0054
0.9284 0.1034 0.0083
0.898 0.1034 0.0116
0.863 0.1034 0.0152
0.8237 0.1034 0.0192
0.7806 0.1034 0.0232
0.7342 0.1034 0.0274
0.6851 0.1034 0.0315
0.6338 0.1034 0.0355
0.5809 0.1034 0.0392
0.5271 0.1034 0.0425
0.4729 0.1034 0.0454
0.4191 0.1034 0.0477
0.3662 0.1034 0.0492
0.3149 0.1034 0.05
0.2658 0.1034 0.0498
0.2194 0.1034 0.0486
0.1763 0.1034 0.0465
0.137 0.1034 0.0434
0.102 0.1034 0.0393
0.0716 0.1034 0.0344
0.0462 0.1034 0.0286
0.0262 0.1034 0.0222
0.0117 0.1034 0.0153
0.0029 0.1034 0.0079
0.0 0.1034 0.0
0.0029 0.1034 -0.0079
0.0117 0.1034 -0.0153
0.0262 0.1034 -0.0222
0.0462 0.1034 -0.0286
0.0716 0.1034 -0.0344
0.102 0.1034 -0.0393
0.137 0.1034 -0.0434
0.1763 0.1034 -0.0465
0.2194 0.1034 -0.0486
0.2658 0.1034 -0.0498
0.3149 0.1034 -0.05
0.3662 0.1034 -0.0492
0.4191 0.1034 -0.0477
0.4729 0.1034 -0.0454
0.5271 0.1034 -0.0425
0.5809 0.1034 -0.0392
0.6338 0.1034 -0.0355
0.6851 0.1034 -0.0315
0.7342 0.1034 -0.0274
0.7806 0.1034 -0.0232
0.8237 0.1034 -0.0192
0.863 0.1034 -0.0152
0.898 0.1034 -0.0116
0.9284 0.1034 -0.0083
0.9538 0.1034 -0.0054
0.9738 0.1034 -0.0031
0.9883 0.1034 -0.0014
0.9971 0.1034 -0.0004
1.0 0.1034 0.0
1.0 0.2069 0.0
0.9971 0.2069 0.0004
0.9883 0.2069 0.0014
0.9738 0.2069 0.0031
0.9538 0.2069 0.0054
0.9284 0.2069 0.0083
0.898 0.2069 0.0116
0.863 0.2069 0.0152
0.8237 0.2069 0.0192
0.7806 0.2069 0.0232
0.7342 0.2069 0.0274
0.6851 0.2069 0.0315
0.6338 0.2069 0.0355
0.5809 0.2069 0.0392
0.5271 0.2069 0.0425
0.4729 0.2069 0.0454
0.4191 0.2069 0.0477
0.3662 0.2069 0.0492
0.3149 0.2069 0.05
0.2658 0.2069 0.0498
0.2194 0.2069 0.0486
0.1763 0.2069 0.0465
0.137 0.2069 0.0434
0.102 0.2069 0.0393
0.0716 0.2069 0.0344
0.0462 0.2069 0.0286
0.0262 0.2069 0.0222
0.0117 0.2069 0.0153
0.0029 0.2069 0.0079
0.0 0.2069 0.0
0.0029 0.2069 -0.0079
0.0117 0.2069 -0.0153
0.0262 0.2069 -0.0222
0.0462 0.2069 -0.0286
0.0716 0.2069 -0.0344
0.102 0.2069 -0.0393
0.137 0.2069 -0.0434
0.1763 0.2069 -0.0465
0.2194 0.2069 -0.0486
0.2658 0.2069 -0.0498
0.3149 0.2069 -0.05
0.3662 0.2069 -0.0492
0.4191 0.2069 -0.0477
0.4729 0.2069 -0.0454
0.5271 0.2069 -0.0425
0.5809 0.2069 -0.0392
0.6338 0.2069 -0.0355
0.6851 0.2069 -0.0315
0.7342 0.2069 -0.0274
0.7806 0.2069 -0.0232
0.8237 0.2069 -0.0192
0.863 0.2069 -0.0152
0.898 0.2069 -0.0116
0.9284 0.2069 -0.0083
0.9538 0.2069 -0.0054
0.9738 0.2069 -0.0031
0.9883 0.2069 -0.0014
0.9971 0.2069 -0.0004
1.0 0.2069 0.0
1.0 0.3103 0.0
0.9971 0.3103 0.0004
0.9883 0.3103 0.0014
0.9738 0.3103 0.0031
0.9538 0.3103 0.0054
0.9284 0.3103 0.0083
0.898 0.3103 0.0116
0.863 0.3103 0.0152
0.8237 0.3103 0.0192
0.7806 0.3103 0.0232
0.7342 0.3103 0.0274
0.6851 0.3103 0.0315
0.6338 0.3103 0.0355
0.5809 0.3103 0.0392
0.5271 0.3103 0.0425
0.4729 0.3103 0.0454
0.4191 0.3103 0.0477
0.3662 0.3103 0.0492
0.3149 0.3103 0.05
0.2658 0.3103 0.0498
0.2194 0.3103 0.0486
0.1763 0.3103 0.0465
0.137 0.3103 0.0434
0.102 0.3103 0.0393
0.0716 0.3103 0.0344
0.0462 0.3103 0.0286
0.0262 0.3103 0.0222
0.0117 0.3103 0.0153
0.0029 0.3103 0.0079
0.0 0.3103 0.0
0.0029 0.3103 -0.0079
0.0117 0.3103 -0.0153
0.0262 0.3103 -0.0222
0.0462 0.3103 -0.0286
0.0716 0.3103 -0.0344
0.102 0.3103 -0.0393
0.137 0.3103 -0.0434
0.1763 0.3103 -0.0465
0.2194 0.3103 -0.0486
0.2658 0.3103 -0.0498
0.3149 0.3103 -0.05
0.3662 0.3103 -0.0492
0.4191 0.3103 -0.0477
0.4729 0.3103 -0.0454
0.5271 0.3103 -0.0425
0.5809 0.3103 -0.0392
0.6338 0.3103 -0.0355
0.6851 0.3103 -0.0315
0.7342 0.3103 -0.0274
0.7806 0.3103 -0.0232
0.8237 0.3103 -0.0192
0.863 0.3103 -0.0152
0.898 0.3103 -0.0116
0.9284 0.3103 -0.0083
0.9538 0.3103 -0.0054
0.9738 0.3103 -0.0031
0.9883 0.3103 -0.0014
0.9971 0.3103 -0.0004
1.0 0.3103 0.0
1.0 0.4138 0.0
0.9971 0.4138 0.0004
0.9883 0.4138 0.0014
0.9738 0.4138 0.0031
0.9538 0.4138 0.0054
0.9284 0.4138 0.0083
0.898 0.4138 0.0116
0.863 0.4138 0.0152
0.8237 0.4138 0.0192
0.7806 0.4138 0.0232
0.7342 0.4138 0.0274
0.6851 0.4138 0.0315
0.6338 0.4138 0.0355
0.5809 0.4138 0.0392
0.5271 0.4138 0.0425
0.4729 0.4138 0.0454
0.4191 0.4138 0.0477
0.3662 0.4138 0.0492
0.3149 0.4138 0.05
0.2658 0.4138 0.0498
0.2194 0.4138 0.0486
0.1763 0.4138 0.0465
0.137 0.4138 0.0434
0.102 0.4138 0.0393
0.0716 0.4138 0.0344
0.0462 0.4138 0.0286
0.0262 0.4138 0.0222
0.0117 0.4138 0.0153
0.0029 0.4138 0.0079
0.0 0.4138 0.0
0.0029 0.4138 -0.0079
0.0117 0.4138 -0.0153
0.0262 0.4138 -0.0222
0.0462 0.4138 -0.0286
0.0716 0.4138 -0.0344
0.102 0.4138 -0.0393
0.137 0.4138 -0.0434
0.1763 0.4138 -0.0465
0.2194 0.4138 -0.0486
0.2658 0.4138 -0.0498
0.3149 0.4138 -0.05
0.3662 0.4138 -0.0492
0.4191 0.4138 -0.0477
0.4729 0.4138 -0.0454
0.5271 0.4138 -0.0425
0.5809 0.4138 -0.0392
0.6338 0.4138 -0.0355
0.6851 0.4138 -0.0315
0.7342 0.4138 -0.0274
0.7806 0.4138 -0.0232
0.8237 0.4138 -0.0192
0.863 0.4138 -0.0152
0.898 0.4138 -0.0116
0.9284 0.4138 -0.0083
0.9538 0.4138 -0.0054
0.9738 0.4138 -0.0031
0.9883 0.4138 -0.0014
0.9971 0.4138 -0.0004
1.0 0.4138 0.0
1.0 0.5172 0.0
0.9971 0.5172 0.0004
0.9883 0.5172 0.0014
0.9738 0.5172 0.0031
0.9538 0.5172 0.0054
0.9284 0.5172 0.0083
0.898 0.5172 0.0116
0.863 0.5172 0.0152
0.8237 0.5172 0.0192
0.7806 0.5172 0.0232
0.7342 0.5172 0.0274
0.6851 0.5172 0.0315
0.6338 0.5172 0.0355
0.5809 0.5172 0.0392
0.5271 0.5172 0.0425
0.4729 0.5172 0.0454
0.4191 0.5172 0.0477
0.3662 0.5172 0.0492
0.3149 0.5172 0.05
0.2658 0.5172 0.0498
0.2194 0.5172 0.0486
0.1763 0.5172 0.0465
0.137 0.5172 0.0434
0.102 0.5172 0.0393
0.0716 0.5172 0.0344
0.0462 0.5172 0.0286
0.0262 0.5172 0.0222
0.0117 0.5172 0.0153
0.0029 0.5172 0.0079
0.0 0.5172 0.0
0.0029 0.5172 -0.0079
0.0117 0.5172 -0.0153
0.0262 0.5172 -0.0222
0.0462 0.5172 -0.0286
0.0716 0.5172 -0.0344
0.102 0.5172 -0.0393
0.137 0.5172 -0.0434
0.1763 0.5172 -0.0465
0.2194 0.5172 -0.0486
0.2658 0.5172 -0.0498
0.3149 0.5172 -0.05
0.3662 0.5172 -0.0492
0.4191 0.5172 -0.0477
0.4729 0.5172 -0.0454
0.5271 0.5172 -0.0425
0.5809 0.5172 -0.0392
0.6338 0.5172 -0.0355
0.6851 0.5172 -0.0315
0.7342 0.5172 -0.0274
0.7806 0.5172 -0.0232
0.8237 0.5172 -0.0192
0.863 0.5172 -0.0152
0.898 0.5172 -0.0116
0.9284 0.5172 -0.0083
0.9538 0.5172 -0.0054
0.9738 0.5172 -0.0031
0.9883 0.5172 -0.0014
0.9971 0.5172 -0.0004
1.0 0.5172 0.0
1.0 0.6207 0.0
0.9971 0.6207 0.0004
0.9883 0.6207 0.0014
0.9738 0.6207 0.0031
0.9538 0.6207 0.0054
0.9284 0.6207 0.0083
0.898 0.6207 0.0116
0.863 0.6207 0.0152
0.8237 0.6207 0.0192
0.7806 0.6207 0.0232
0.7342 0.6207 0.0274
0.6851 0.6207 0.0315
0.6338 0.6207 0.0355
0.5809 0.6207 0.0392
0.5271 0.6207 0.0425
0.4729 0.6207 0.0454
0.4191 0.6207 0.0477
0.3662 0.6207 0.0492
0.3149 0.6207 0.05
0.2658 0.6207 0.0498
0.2194 0.6207 0.0486
0.1763 0.6207 0.0465
0.137 0.6207 0.0434
0.102 0.6207 0.0393
0.0716 0.6207 0.0344
0.0462 0.6207 0.0286
0.0262 0.6207 0.0222
0.0117 0.6207 0.0153
0.0029 0.6207 0.0079
0.0 0.6207 0.0
0.0029 0.6207 -0.0079
0.0117 0.6207 -0.0153
0.0262 0.6207 -0.0222
0.0462 0.6207 -0.0286
0.0716 0.6207 -0.0344
0.102 0.6207 -0.0393
0.137 0.6207 -0.0434
0.1763 0.6207 -0.0465
0.2194 0.6207 -0.0486
0.2658 0.6207 -0.0498
0.3149 0.6207 -0.05
0.3662 0.6207 -0.0492
0.4191 0.6207 -0.0477
0.4729 0.6207 -0.0454
0.5271 0.6207 -0.0425
0.5809 0.6207 -0.0392
0.6338 0.6207 -0.0355
0.6851 0.6207 -0.0315
0.7342 0.6207 -0.0274
0.7806 0.6207 -0.0232
0.8237 0.6207 -0.0192
0.863 0.6207 -0.0152
0.898 0.6207 -0.0116
0.9284 0.6207 -0.0083
0.9538 0.6207 -0.0054
0.9738 0.6207 -0.0031
0.9883 0.6207 -0.0014
0.9971 0.6207 -0.0004
1.0 0.6207 0.0
1.0 0.7241 0.0
0.9971 0.7241 0.0004
0.9883 0.7241 0.0014
0.9738 0.7241 0.0031
0.9538 0.7241 0.0054
0.9284 0.7241 0.0083
0.898 0.7241 0.0116
0.863 0.7241 0.0152
0.8237 0.7241 0.0192
0.7806 0.7241 0.0232
0.7342 0.7241 0.0274
0.6851 0.7241 0.0315
0.6338 0.7241 0.0355
0.5809 0.7241 0.0392
0.5271 0.7241 0.0425
0.4729 0.7241 0.0454
0.4191 0.7241 0.0477
0.3662 0.7241 0.0492
0.3149 0.7241 0.05
0.2658 0.7241 0.0498
0.2194 0.7241 0.0486
0.1763 0.7241 0.0465
0.137 0.7241 0.0434
0.102 0.7241 0.0393
0.0716 0.7241 0.0344
0.0462 0.7241 0.0286
0.0262 0.7241 0.0222
0.0117 0.7241 0.0153
0.0029 0.7241 0.0079
0.0 0.7241 0.0
0.0029 0.7241 -0.0079
0.0117 0.7241 -0.0153
0.0262 0.7241 -0.0222
0.0462 0.7241 -0.0286
0.0716 0.7241 -0.0344
0.102 0.7241 -0.0393
0.137 0.7241 -0.0434
0.1763 0.7241 -0.0465
0.2194 0.7241 -0.0486
0.2658 0.7241 -0.0498
0.3149 0.7241 -0.05
0.3662 0.7241 -0.0492
0.4191 0.7241 -0.0477
0.4729 0.7241 -0.0454
0.5271 0.7241 -0.0425
0.5809 0.7241 -0.0392
[...]
POINT_DATA 2010
SCALARS cp1 float
LOOKUP_TABLE default
0.423098
0.329432
0.216621
0.154471
0.0913113
0.0323673
-0.0165384
-0.0616252
-0.110914
-0.154578
-0.200415
-0.250341
-0.301478
-0.353893
-0.40732
-0.471666
-0.540588
-0.611379
-0.696197
-0.785051
-0.877653
-0.994844
-1.1296
-1.28837
-1.5007
-1.77242
-2.19941
-3.17871
-4.30922
-1.8023
1.54507
1.51265
0.947061
0.663582
0.47675
0.347926
0.252735
0.183608
0.135433
0.0956557
0.069707
0.0560877
0.0443992
0.0397491
0.0404271
0.0390625
0.0414932
0.0482044
0.0572069
0.0671951
0.077256
0.0949994
0.112834
0.13381
0.168072
0.207981
0.252026
0.341665
0.415452
0.423185
0.341989
0.234558
0.16182
0.0964911
0.0368546
-0.0137291
-0.0604096
-0.109088
-0.153929
-0.20037
-0.250093
-0.301365
-0.35418
-0.409044
-0.472938
-0.541861
-0.614367
-0.698535
-0.788301
-0.884691
-1.0032
-1.14209
-1.30975
-1.53359
-1.83533
-2.30269
-3.11581
-3.729
-1.68338
1.01381
1.31293
0.963909
0.692104
0.497263
0.360786
0.261457
0.189705
0.138913
0.0990193
0.0724006
0.0571688
0.0457261
0.040672
0.0403764
0.0396757
0.0422925
0.0487643
0.0575768
0.0676838
0.0787951
0.0959683
0.114733
0.137593
0.172175
0.214242
0.266799
0.351701
0.415665
0.423215
0.337051
0.22936
0.159473
0.0948455
0.0354835
-0.0144976
-0.0606882
-0.10951
-0.153939
-0.200171
-0.249914
-0.301107
-0.353757
-0.408145
-0.472129
-0.541018
-0.612953
-0.697257
-0.78673
-0.881902
-0.999928
-1.13755
-1.30232
-1.52225
-1.81407
-2.26649
-3.12372
-3.90803
-1.71737
1.19594
1.37179
0.957475
0.682068
0.489752
0.355753
0.257847
0.187073
0.137189
0.097429
0.0710995
0.0564087
0.0449424
0.0400497
0.0400802
0.0392133
0.0417928
0.0483637
0.0572534
0.0673523
0.0781574
0.0954905
0.114027
0.13625
0.170702
0.212123
0.262365
0.347787
0.415764
0.423203
0.337077
0.229426
0.159578
0.0949821
0.0356509
-0.0142955
-0.0604544
-0.109234
-0.15362
-0.199807
-0.249508
-0.300657
-0.35325
-0.407583
-0.471509
-0.540337
-0.612202
-0.696419
-0.785784
-0.880807
-0.99862
-1.13597
-1.3004
-1.51998
-1.8116
-2.26385
-3.12003
-3.90135
-1.71075
1.19742
1.37071
0.956266
0.681036
0.488951
0.355071
0.257207
0.186452
0.136582
0.0968428
0.0705464
0.055894
0.0444656
0.0396111
0.0396793
0.0388433
0.0414498
0.0480574
0.056984
0.0671132
0.0779479
0.0953106
0.113884
0.136139
0.170628
0.212079
0.262338
0.347772
0.415737
0.423223
0.337117
0.229506
0.159702
0.0951537
0.0358726
-0.0140203
-0.0601249
-0.108848
-0.153175
-0.199301
-0.248939
-0.300021
-0.352544
-0.406802
-0.47065
-0.539391
-0.611159
-0.695268
-0.784509
-0.879385
-0.99702
-1.13414
-1.29827
-1.5174
-1.80833
-2.25939
-3.1131
-3.88994
-1.70021
1.19995
1.36943
0.954683
0.67953
0.487566
0.353815
0.256066
0.185414
0.135634
0.0959671
0.0697375
0.0551491
0.0437757
0.0389758
0.0390978
0.0383095
0.0409639
0.0476198
0.0565936
0.066769
0.0776475
0.0950562
0.113674
0.13597
0.170501
0.211993
0.262288
0.347756
0.415739
0.423248
0.33717
0.229612
0.159864
0.0953775
0.0361623
-0.0136628
-0.0596966
-0.108345
-0.152596
-0.198642
-0.248196
-0.299191
-0.351624
-0.405787
-0.469531
-0.538159
-0.609804
-0.693771
-0.782851
-0.877539
-0.994935
-1.13176
-1.29547
-1.51402
-1.80407
-2.25364
-3.10421
-3.87526
-1.68668
1.20315
1.36777
0.952638
0.677589
0.485786
0.352199
0.254593
0.184068
0.1344
0.0948269
0.0686844
0.0541782
0.0428786
0.0381494
0.0383399
0.0376152
0.0403323
0.0470504
0.0560853
0.0663205
0.0772573
0.0947245
0.113399
0.135751
0.170337
0.211881
0.262225
0.347737
0.415742
0.423279
0.337235
0.229743
0.160066
0.0956556
0.0365225
-0.0132182
-0.0591637
-0.107719
-0.151875
-0.197822
-0.247272
-0.298158
-0.350478
-0.404524
-0.468137
-0.536626
-0.608119
-0.69191
-0.780791
-0.875247
-0.992348
-1.12879
-1.29201
-1.50983
-1.79879
-2.24651
-3.09319
-3.8571
-1.66995
1.20709
1.36571
0.9501
0.67518
0.483576
0.350192
0.252764
0.182395
0.132864
0.0934091
0.0673749
0.0529707
0.0417631
0.0371219
0.0373973
0.0367516
0.0395465
0.0463419
0.0554525
0.0657621
0.0767715
0.0943114
0.113057
0.135478
0.170133
0.211741
0.262146
0.347713
0.415745
0.423315
0.337313
0.2299
0.160308
0.0959902
0.0369563
-0.0126824
-0.0585214
-0.106965
-0.151006
-0.196832
-0.246156
-0.296912
-0.349096
-0.403
-0.466457
-0.534778
-0.606089
-0.68967
-0.778314
-0.872492
-0.98924
-1.12523
-1.28785
-1.5048
-1.79246
-2.23797
-3.07999
-3.83535
-1.64995
1.21176
1.36321
0.947047
0.672286
0.480922
0.347782
0.250566
0.180383
0.131019
0.0917039
0.0657994
0.0515177
0.0404204
0.0358849
0.0362622
0.0357115
0.0385998
0.045488
0.0546897
0.0650887
0.0761854
0.0938128
0.112644
0.135148
0.169885
0.211572
0.26205
0.347683
0.415748
0.423356
0.337404
0.230084
0.160593
0.0963853
0.0374691
-0.0120487
-0.057761
-0.106071
-0.149976
-0.19566
-0.244835
-0.295435
-0.347458
-0.401194
-0.464468
-0.532591
-0.603688
-0.687022
-0.775386
-0.869239
-0.985572
-1.12104
-1.28295
-1.49888
-1.78501
-2.22792
-3.06448
-3.80983
-1.62653
1.2172
1.36025
0.943446
0.668875
0.477794
0.344941
0.247975
0.178012
0.128842
0.089692
0.0639399
0.0498021
0.0388346
0.0344233
0.0349206
0.0344818
0.0374802
0.0444778
0.0537869
0.0642914
0.0754912
0.0932219
0.112154
0.134756
0.169591
0.211371
0.261936
0.347646
0.41575
0.423402
0.337507
0.230297
0.160924
0.0968441
0.0380654
-0.0113111
-0.0568756
-0.10503
-0.148776
-0.194293
-0.243294
-0.293712
-0.345549
-0.39909
-0.462149
-0.530044
-0.600893
-0.68394
-0.771983
-0.865461
-0.981316
-1.11617
-1.27727
-1.49203
-1.7764
-2.21631
-3.04658
-3.7804
-1.59956
1.22341
1.35679
0.939265
0.66492
0.474168
0.341649
0.244971
0.175262
0.126317
0.0873574
0.0617814
0.0478099
0.0369923
0.0327247
0.0333609
0.0330515
0.0361774
0.0433017
0.0527355
0.0633623
0.0746817
0.0925324
0.111581
0.134299
0.169247
0.211134
0.2618
0.347602
0.415751
0.423451
0.337623
0.230539
0.161303
0.0973719
0.0387525
-0.01046
-0.0558529
-0.103826
-0.147388
-0.192711
-0.241511
-0.291719
-0.343339
-0.396656
-0.459469
-0.5271
-0.597665
-0.680385
-0.76806
-0.861109
-0.976419
-1.11058
-1.27075
-1.48417
-1.76653
-2.20302
-3.0261
-3.74677
-1.56883
1.23041
1.35279
0.934454
0.660375
0.470003
0.337867
0.241521
0.172102
0.123413
0.0846721
0.0592975
0.0455163
0.0348705
0.0307674
0.0315627
0.0314017
0.0346739
0.0419438
0.0515206
0.0622882
0.0737452
0.0917341
0.110918
0.133767
0.168847
0.210858
0.261641
0.347547
0.415749
0.423503
0.337752
0.230813
0.161734
0.097973
0.0395368
-0.00948728
-0.0546828
-0.102448
-0.145798
-0.190899
-0.239466
-0.289434
-0.340806
-0.393866
-0.456397
-0.523728
-0.593971
-0.67632
-0.763578
-0.856143
-0.970837
-1.10421
-1.26334
-1.47524
-1.75533
-2.18796
-3.00291
-3.70875
-1.53417
1.2382
1.3482
0.928969
0.655202
0.465265
0.333564
0.237594
0.168505
0.120108
0.0816132
0.0564667
0.0429011
0.0324498
0.0285333
0.0295091
0.0295165
0.0329548
0.0403901
0.0501297
0.0610575
0.0726711
0.0908176
0.110156
0.133156
0.168385
0.210539
0.261455
0.347481
0.415743
0.423555
0.337891
0.231119
0.16222
0.0986543
0.0404282
-0.00837958
-0.0533485
-0.100875
-0.143981
-0.188827
-0.237128
-0.286821
-0.337909
-0.390675
-0.452886
-0.519878
-0.589754
-0.671685
-0.758473
-0.850494
-0.964495
-1.09699
-1.25494
-1.46514
-1.74267
-2.17095
-2.97677
-3.66598
-1.49529
1.24683
1.34294
0.922739
0.649335
0.459895
0.328688
0.233143
0.164426
0.116357
0.0781413
0.0532521
0.0399298
0.029698
0.0259921
0.0271717
0.0273694
0.0309954
0.0386178
0.0485417
0.059651
0.0714425
0.0897679
0.109281
0.132452
0.167852
0.210168
0.261237
0.347401
0.415731
0.423605
0.338041
0.231458
0.162764
0.099421
0.0414347
-0.00712596
-0.0518358
-0.0990889
-0.141916
-0.18647
-0.234468
-0.283846
-0.334612
-0.387045
-0.448894
-0.515501
-0.584967
-0.666427
-0.75269
-0.844102
-0.957331
-1.08884
-1.24548
-1.45378
-1.72845
-2.15188
-2.94749
-3.61815
-1.45196
1.25629
1.33693
0.9157
0.642721
0.453843
0.323194
0.228127
0.159828
0.112128
0.0742239
0.049623
0.0365736
0.0265879
0.0231181
0.0245264
0.0249375
0.0287742
0.0366068
0.0467379
0.0580516
0.0700434
0.0885708
0.108282
0.131647
0.16724
0.20974
0.260982
0.347302
0.41571
0.423649
0.338197
0.23183
0.16337
0.100281
0.0425692
-0.00570887
-0.0501223
-0.0970625
-0.139571
-0.183791
-0.231442
-0.28046
-0.330858
-0.382912
-0.44435
-0.510524
-0.579527
-0.66046
-0.746137
-0.836871
-0.949238
-1.07965
-1.23483
-1.441
-1.71249
-2.13051
-2.91475
-3.56478
-1.4038
1.26661
1.3301
0.907754
0.635267
0.447029
0.317008
0.222479
0.154648
0.107361
0.0698067
0.0455288
0.0327849
0.0230748
0.0198695
0.0215338
0.0221839
0.0262566
0.0343248
0.0446884
0.0562316
0.0684488
0.0872038
0.107139
0.130723
0.166535
0.209244
0.260682
0.347179
0.415677
0.423679
0.338355
0.232233
0.164039
0.101241
0.0438412
-0.00411401
-0.0481885
-0.0947709
-0.136914
-0.180752
-0.228006
-0.276614
-0.326593
-0.378217
-0.439191
-0.504877
-0.573361
-0.653706
-0.738729
-0.82871
-0.940122
-1.06932
-1.22288
-1.4267
-1.69466
-2.10667
-2.87828
-3.50548
-1.35052
1.27777
1.32231
0.898805
0.626895
0.439382
0.310067
0.21614
0.148833
0.102007
0.0648432
0.040926
0.0285231
0.0191203
0.0162099
0.0181595
0.0190757
0.0234113
0.0317421
0.0423651
0.0541649
0.0666344
0.0856447
0.105831
0.129662
0.165721
0.208665
0.260326
0.347025
0.415624
0.423687
0.338508
0.232664
0.164775
0.102308
0.045266
-0.00231915
-0.0460046
-0.092176
-0.133899
-0.177299
-0.224096
-0.272235
-0.321735
-0.37287
-0.433316
-0.49845
-0.566352
-0.646038
-0.730333
-0.819479
-0.929831
-1.05768
-1.20944
-1.41066
-1.6747
-2.08003
-2.83762
-3.43956
-1.29159
1.28981
1.31344
0.888713
0.617477
0.430786
0.302266
0.209014
0.142295
0.0959858
0.0592586
0.0357447
0.023723
0.0146634
0.0120817
0.0143491
0.0155613
0.0201892
0.0288122
0.0397242
0.0518103
0.0645621
0.0838588
0.104327
0.128437
0.164775
0.207987
0.2599
0.346828
0.415544
0.423656
0.338641
0.233116
0.165573
0.103485
0.0468535
-0.000306949
-0.0435453
-0.0892439
-0.130484
-0.173378
-0.219651
-0.26725
-0.316202
-0.366778
-0.426625
-0.491136
-0.558384
-0.637333
-0.72082
-0.809041
-0.918222
-1.04459
-1.19436
-1.39269
-1.6524
-2.05035
-2.7924
-3.36647
-1.2266
1.30268
1.3033
0.877339
0.606893
0.421137
0.293512
0.201018
0.134955
0.089225
0.0529863
0.0299231
0.0183272
0.00964984
0.00743367
0.0100536
0.0115932
0.0165443
0.0254902
0.0367223
0.0491262
0.0621922
0.0818089
0.102594
0.127017
0.16367
0.207185
0.259385
0.346574
0.415424
0.423565
0.338736
0.233574
0.16643
0.104778
0.0486185
0.00194855
-0.0407725
-0.0859235
-0.126604
-0.168911
-0.214577
-0.261552
-0.309872
-0.359805
-0.418968
-0.482771
-0.54928
-0.627403
-0.709988
-0.797183
-0.905066
-1.02979
-1.17737
-1.3725
-1.62741
-2.01716
-2.74199
-3.28528
-1.15488
1.3164
1.29169
0.864471
0.594956
0.410266
0.283653
0.192013
0.12669
0.0816108
0.0459215
0.0233649
0.0122463
0.00399626
0.0021869
0.0051976
0.00709861
0.0124054
0.0217071
0.0332923
0.046048
0.0594632
0.0794375
0.100578
0.125354
0.162364
0.206223
0.258751
0.34624
0.415244
0.423377
0.338759
0.234013
0.167327
0.106179
0.0505659
0.00446469
-0.0376555
-0.0821693
-0.122197
-0.163822
-0.208781
-0.255031
-0.302618
-0.351809
-0.410186
-0.473181
-0.538854
-0.616048
-0.697627
-0.783685
-0.890134
-1.01304
-1.15819
-1.3498
-1.59939
-1.98007
-2.68581
-3.19514
-1.07582
1.33089
1.27833
0.84989
0.581478
0.398008
0.272543
0.181868
0.117381
0.0730366
0.0379679
0.0159824
0.0054002
-0.00237229
-0.0037301
-0.000288722
0.00200778
0.0077024
0.0173917
0.0293625
0.042504
0.0563047
0.0766768
0.0982158
0.12339
0.160805
0.205056
0.257958
0.345792
0.414977
0.423037
0.338658
0.234392
0.168239
0.107675
0.0527007
0.00726536
-0.0341496
-0.0779149
-0.117175
-0.157997
-0.202125
-0.247524
-0.294253
-0.34258
-0.400044
-0.462108
-0.526825
-0.602968
-0.683417
-0.768209
-0.873066
-0.993959
-1.13643
-1.32413
-1.56781
-1.9384
-2.62292
-3.09471
-0.988477
1.34609
1.26287
0.833267
0.566168
0.384105
0.259951
0.170377
0.106843
0.0633375
0.0289777
0.00764297
-0.00233151
-0.0095676
-0.0104238
-0.0065096
-0.00378404
0.00232836
0.0124346
0.0248216
0.0383827
0.0526062
0.0734198
0.0954052
0.121029
0.158906
0.203608
0.256944
0.345179
0.414578
0.422456
0.338345
0.234637
0.169106
0.10923
0.0550055
0.0103562
-0.0302245
-0.0731029
-0.111453
-0.151324
-0.194468
-0.238861
-0.284577
-0.331888
-0.388285
-0.449267
-0.512883
-0.587825
-0.667
-0.750378
-0.853466
-0.972133
-1.11164
-1.295
-1.53213
-1.89151
-2.5524
-2.98264
-0.891925
1.36184
1.24485
0.814227
0.548707
0.368278
0.245633
0.157323
0.094887
0.0523509
0.0188108
-0.00177476
-0.0110558
-0.017688
-0.0179896
-0.0135624
-0.0103807
-0.00382969
0.00671298
0.0195379
0.0335455
0.0482258
0.0695253
0.0920095
0.118143
0.15655
0.201773
0.255613
0.344322
0.413979
0.421482
0.337675
0.234623
0.169829
0.110771
0.0574442
0.0137374
-0.0258408
-0.0676531
-0.104909
-0.143637
-0.185603
-0.228794
-0.273302
-0.319401
-0.374531
-0.434235
-0.496561
-0.570111
-0.647827
-0.729607
-0.830715
-0.946904
-1.08312
-1.26164
-1.49147
-1.83831
-2.47275
-2.85679
-0.784716
1.37796
1.22363
0.792198
0.528594
0.350085
0.229201
0.142371
0.0812239
0.0398304
0.00725935
-0.0124467
-0.020925
-0.0268724
-0.0265629
-0.0215883
-0.0179365
-0.010944
3.49071e-05
0.0133013
0.0277682
0.042931
0.06476
0.0878009
0.114516
0.153536
0.199371
0.253809
0.343087
0.413065
0.419866
0.336394
0.234125
0.170222
0.112156
0.0599194
0.0173624
-0.0209918
-0.0615043
-0.0974299
-0.134774
-0.175316
-0.217058
-0.260112
-0.304752
-0.358356
-0.416524
-0.477309
-0.549212
-0.625229
-0.705182
-0.804054
-0.917471
-1.05001
-1.22315
-1.44481
-1.7776
-2.38231
-2.71475
-0.665271
1.39405
1.19834
0.766453
0.50521
0.328989
0.210193
0.125129
0.0655328
0.0255218
-0.00587369
-0.0245244
-0.0320604
-0.0372287
-0.0362549
-0.0307168
-0.0266119
-0.0192146
-0.00784275
0.00582734
0.0207318
0.0363785
0.0587703
0.082428
0.109807
0.149549
0.196116
0.251278
0.341259
0.411653
0.417158
0.334041
0.232732
0.169936
0.113108
0.0622393
0.0211284
-0.0156886
-0.0545784
-0.0888566
-0.124502
-0.163308
-0.203289
-0.244571
-0.287426
-0.339154
-0.395427
-0.454309
-0.524198
-0.598167
-0.675967
-0.772257
-0.882533
-1.01095
-1.17804
-1.3905
-1.70738
-2.2783
-2.55262
-0.531027
1.4096
1.16761
0.735819
0.477536
0.304106
0.187859
0.104976
0.0473202
0.00905116
-0.0208611
-0.0382052
-0.0446127
-0.0488914
-0.047212
-0.0411308
-0.0366474
-0.0289558
-0.0173176
-0.00336448
0.0118826
0.0279609
0.0509227
0.0752578
0.103409
0.144022
0.191491
0.247562
0.338444
0.409411
0.412633
0.329782
0.229678
0.168297
0.113068
0.0639898
0.0247811
-0.0100291
-0.0468372
-0.0790474
-0.112598
-0.14929
-0.187128
-0.226242
-0.266885
-0.316258
-0.370122
-0.426566
-0.493876
-0.565252
-0.640391
-0.733596
-0.840234
-0.96398
-1.12422
-1.32626
-1.62501
-2.1571
-2.36513
-0.378644
1.42351
1.12934
0.698551
0.44408
0.274161
0.161149
0.0810954
0.0259994
-0.00996224
-0.0379217
-0.0536006
-0.0586408
-0.0619153
-0.0595278
-0.0529983
-0.0483164
-0.0405758
-0.0289558
-0.0150083
0.000326719
0.0166577
0.0401303
0.0652005
0.0942811
0.136003
0.184639
0.241892
0.333972
0.405804
0.406604
0.322696
0.224072
0.164508
0.111428
0.0649021
0.0284171
-0.00362036
-0.0377024
-0.0673476
-0.0983839
-0.132567
-0.167851
-0.204331
-0.242223
-0.288588
-0.3393
-0.392482
-0.456295
-0.524145
-0.595725
-0.684964
-0.787162
-0.905467
-1.0579
-1.24812
-1.52606
-2.01268
-2.14335
-0.202486
1.43383
1.07982
0.65163
0.402317
0.237079
0.128462
0.0523707
0.000904803
-0.031814
-0.0570913
-0.070607
-0.0740037
-0.0761887
-0.0731725
-0.0664152
-0.0618735
-0.054537
-0.0434911
-0.0301651
-0.0153535
0.000722908
0.0244483
0.0503242
0.0807423
0.124232
0.174697
0.23369
0.327494
0.401087
0.41697
0.317961
0.222145
0.162737
0.112003
0.0690547
0.0360059
0.00698911
-0.0244646
-0.0517995
-0.0804813
-0.112149
-0.144676
-0.178111
-0.212644
-0.255131
-0.301602
-0.350233
-0.408992
-0.471634
-0.537946
-0.621514
-0.717851
-0.829659
-0.973246
-1.15011
-1.4038
-1.83481
-1.87049
0.00825889
1.43662
1.01263
0.590165
0.347656
0.188784
0.0867289
0.0169383
-0.0287656
-0.0565753
-0.0780692
-0.0888444
-0.0904157
-0.0915721
-0.0881874
-0.0816368
-0.0777799
-0.0715614
-0.0620365
-0.0504912
-0.0375264
-0.02303
8.36422e-07
0.0267011
0.0600861
0.108973
0.166198
0.231624
0.332576
0.421294
0.182635
0.12962
0.0918628
0.0713808
0.0445481
0.0165349
-0.00657291
-0.0274362
-0.0509363
-0.0713284
-0.0929232
-0.117213
-0.142371
-0.168355
-0.195433
-0.229337
-0.266758
-0.306144
-0.353928
-0.404981
-0.459302
-0.528408
-0.609173
-0.704591
-0.828802
-0.983467
-1.19887
-1.51156
-1.382
0.2431
1.32088
0.88998
0.485268
0.254786
0.111641
0.0242335
-0.0332647
-0.0699354
-0.0918071
-0.109064
-0.117848
-0.11931
-0.120938
-0.119256
-0.115532
-0.114842
-0.113032
-0.109444
-0.105458
-0.102056
-0.0994623
-0.0920284
-0.0839545
-0.071734
-0.0451971
-0.0046944
0.0610058
0.179419
0.28049
-0.251886
-0.22517
-0.155863
-0.095141
-0.0828023
-0.0888884
-0.0959822
-0.102604
-0.114544
-0.122397
-0.131991
-0.145154
-0.159051
-0.173709
-0.188492
-0.211022
-0.236194
-0.261199
-0.294991
-0.329547
-0.36332
-0.411167
-0.466334
-0.530907
-0.621782
-0.731998
-0.898951
-1.28058
-1.25987
0.626746
1.61573
0.72601
0.26557
0.0864587
-0.0130136
-0.0667805
-0.102436
-0.125089
-0.137359
-0.151025
-0.158009
-0.158503
-0.162456
-0.163539
-0.163104
-0.168431
-0.173638
-0.178699
-0.185977
-0.197703
-0.216225
-0.235014
-0.263122
-0.297219
-0.32183
-0.330723
-0.293705
-0.142521
-0.0117228
-24.8832
-13.6193
-1.11605
-1.53113
-1.13876
-0.817814
-0.63449
-0.520032
-0.428892
-0.359787
-0.320866
-0.292578
-0.274347
-0.261256
-0.257279
-0.264137
-0.273961
-0.289598
-0.312279
-0.33537
-0.361377
-0.397751
-0.435846
-0.479001
-0.5374
-0.605091
-0.706717
-0.974849
-0.620274
0.0939806
-35.5727
-23.2043
-8.832
-5.47226
-3.52132
-2.39907
-1.74663
-1.34489
-1.0696
-0.880521
-0.746897
-0.646188
-0.570021
-0.513344
-0.474653
-0.449149
-0.431679
-0.422816
-0.421665
-0.423504
-0.430375
-0.444814
-0.462055
-0.484942
-0.519392
-0.564819
-0.632007
-0.757073
-0.507395
0.124064
-47.0649
-29.2123
-12.0825
-7.19395
-4.70453
-3.30122
-2.43449
-1.86766
-1.48768
-1.22037
-1.02846
-0.882121
-0.772587
-0.690008
-0.629102
-0.583339
-0.547944
-0.522785
-0.5058
-0.493068
-0.486277
-0.486022
-0.488595
-0.495778
-0.510951
-0.534223
-0.573377
-0.678421
-0.42137
0.199084
-39.9447
-28.0221
-13.6945
-7.99245
-5.17566
-3.59195
-2.64568
-2.03473
-1.6171
-1.32632
-1.11602
-0.960205
-0.844929
-0.756361
-0.688723
-0.636728
-0.596209
-0.566254
-0.543903
-0.526982
-0.51575
-0.509268
-0.505427
-0.503783
-0.505824
-0.512435
-0.523364
-0.567836
-0.276578