# vtk DataFile Version 2.0
scalar
ASCII
DATASET UNSTRUCTURED_GRID
POINTS 2010 float
1.0 0.0 0.0
0.9971 0.0 0.0004
0.9883 0.0 0.0014
0.9738 0.0 0.0031
0.9538 0.0 0.0054
0.9284 0.0 0.0083
0.898 0.0 0.0116
0.863 0.0 0.0152
0.8237 0.0 0.0192
0.7806 0.0 0.0232
0.7342 0.0 0.0274
0.6851 0.0 0.0315
0.6338 0.0 0.0355
0.5809 0.0 0.0392
0.5271 0.0 0.0425
0.4729 0.0 0.0454
0.4191 0.0 0.0477
0.3662 0.0 0.0492
0.3149 0.0 0.05
0.2658 0.0 0.0498
0.2194 0.0 0.0486
0.1763 0.0 0.0465
0.137 0.0 0.0434
0.102 0.0 0.0393
0.0716 0.0 0.0344
0.0462 0.0 0.0286
0.0262 0.0 0.0222
0.0117 0.0 0.0153
0.0029 0.0 0.0079
0.0 0.0 0.0
0.0029 0.0 -0.0079
0.0117 0.0 -0.0153
0.0262 0.0 -0.0222
0.0462 0.0 -0.0286
0.0716 0.0 -0.0344
0.102 0.0 -0.0393
0.137 0.0 -0.0434
0.1763 0.0 -0.0465
0.2194 0.0 -0.0486
0.2658 0.0 -0.0498
0.3149 0.0 -0.05
0.3662 0.0 -0.0492
0.4191 0.0 -0.0477
0.4729 0.0 -0.0454
0.5271 0.0 -0.0425
0.5809 0.0 -0.0392
0.6338 0.0 -0.0355
0.6851 0.0 -0.0315
0.7342 0.0 -0.0274
0.7806 0.0 -0.0232
0.8237 0.0 -0.0192
0.863 0.0 -0.0152
0.898 0.0 -0.0116
0.9284 0.0 -0.0083
0.9538 0.0 -0.0054
0.9738 0.0 -0.0031
0.9883 0.0 -0.0014
0.9971 0.0 -0.0004
1.0 0.0 0.0
1.0 0.1034 0.0
0.9971 0.1034 0.0003
0.9883 0.1034 0.001
0.9737 0.1034 0.0023
0.9536 0.1034 0.004
0.9282 0.1034 0.006
0.8977 0.1034 0.0083
0.8626 0.1034 0.0109
0.8232 0.1034 0.0135
0.78 0.1034 0.0162
0.7335 0.1034 0.0189
0.6842 0.1034 0.0214
0.6328 0.1034 0.0238
0.5799 0.1034 0.0258
0.526 0.1034 0.0274
0.4717 0.1034 0.0286
0.4179 0.1034 0.0291
0.365 0.1034 0.029
0.3137 0.1034 0.0281
0.2646 0.1034 0.0263
0.2183 0.1034 0.0237
0.1752 0.1034 0.0202
0.1361 0.1034 0.0158
0.1012 0.1034 0.0106
0.0709 0.1034 0.0047
0.0458 0.1034 -0.0018
0.026 0.1034 -0.0088
0.0117 0.1034 -0.0163
0.0032 0.1034 -0.024
0.0005 0.1034 -0.0319
0.0037 0.1034 -0.0397
0.0127 0.1034 -0.0468
0.0274 0.1034 -0.0533
0.0476 0.1034 -0.0591
0.0731 0.1034 -0.064
0.1037 0.1034 -0.0679
0.1388 0.1034 -0.0709
0.1782 0.1034 -0.0728
0.2214 0.1034 -0.0735
0.2678 0.1034 -0.0732
0.3169 0.1034 -0.0718
0.3681 0.1034 -0.0694
0.4209 0.1034 -0.0662
0.4746 0.1034 -0.0622
0.5287 0.1034 -0.0576
0.5824 0.1034 -0.0525
0.6351 0.1034 -0.0471
0.6862 0.1034 -0.0415
0.7352 0.1034 -0.0359
0.7814 0.1034 -0.0302
0.8244 0.1034 -0.0248
0.8636 0.1034 -0.0196
0.8985 0.1034 -0.0148
0.9287 0.1034 -0.0106
0.954 0.1034 -0.0069
0.9739 0.1034 -0.004
0.9884 0.1034 -0.0018
0.9971 0.1034 -0.0004
1.0 0.1034 0.0
1.0 0.2069 0.0
0.9971 0.2069 0.0002
0.9883 0.2069 0.0009
0.9737 0.2069 0.002
0.9536 0.2069 0.0035
0.9281 0.2069 0.0053
0.8977 0.2069 0.0074
0.8625 0.2069 0.0096
0.8231 0.2069 0.0119
0.7798 0.2069 0.0142
0.7333 0.2069 0.0165
0.684 0.2069 0.0186
0.6326 0.2069 0.0204
0.5796 0.2069 0.022
0.5257 0.2069 0.0231
0.4715 0.2069 0.0238
0.4176 0.2069 0.0239
0.3648 0.2069 0.0232
0.3135 0.2069 0.0219
0.2644 0.2069 0.0197
0.2181 0.2069 0.0166
0.1751 0.2069 0.0127
0.136 0.2069 0.008
0.1011 0.2069 0.0025
0.0709 0.2069 -0.0037
0.0458 0.2069 -0.0104
0.0261 0.2069 -0.0176
0.0119 0.2069 -0.0252
0.0034 0.2069 -0.033
0.0008 0.2069 -0.0409
0.0041 0.2069 -0.0487
0.0131 0.2069 -0.0557
0.0279 0.2069 -0.0621
0.0482 0.2069 -0.0677
0.0738 0.2069 -0.0723
0.1043 0.2069 -0.076
0.1395 0.2069 -0.0787
0.1789 0.2069 -0.0802
0.2221 0.2069 -0.0806
0.2684 0.2069 -0.0798
0.3176 0.2069 -0.078
0.3688 0.2069 -0.0751
0.4215 0.2069 -0.0714
0.4752 0.2069 -0.067
0.5292 0.2069 -0.0619
0.5828 0.2069 -0.0563
0.6355 0.2069 -0.0504
0.6866 0.2069 -0.0444
0.7355 0.2069 -0.0382
0.7817 0.2069 -0.0322
0.8246 0.2069 -0.0264
0.8637 0.2069 -0.0208
0.8986 0.2069 -0.0157
0.9288 0.2069 -0.0112
0.954 0.2069 -0.0073
0.974 0.2069 -0.0042
0.9884 0.2069 -0.0019
0.9971 0.2069 -0.0005
1.0 0.2069 0.0
1.0 0.3103 0.0
0.9971 0.3103 0.0002
0.9883 0.3103 0.0009
0.9737 0.3103 0.0019
0.9536 0.3103 0.0033
0.9281 0.3103 0.005
0.8976 0.3103 0.0068
0.8624 0.3103 0.0089
0.823 0.3103 0.011
0.7798 0.3103 0.013
0.7332 0.3103 0.015
0.6839 0.3103 0.0168
0.6325 0.3103 0.0184
0.5795 0.3103 0.0197
0.5256 0.3103 0.0205
0.4714 0.3103 0.0209
0.4175 0.3103 0.0207
0.3646 0.3103 0.0198
0.3134 0.3103 0.0181
0.2643 0.3103 0.0156
0.218 0.3103 0.0123
0.175 0.3103 0.0082
0.1359 0.3103 0.0033
0.1011 0.3103 -0.0024
0.071 0.3103 -0.0088
0.0459 0.3103 -0.0157
0.0262 0.3103 -0.023
0.012 0.3103 -0.0306
0.0036 0.3103 -0.0384
0.0011 0.3103 -0.0464
0.0044 0.3103 -0.0541
0.0135 0.3103 -0.0612
0.0283 0.3103 -0.0674
0.0486 0.3103 -0.0729
0.0742 0.3103 -0.0774
0.1047 0.3103 -0.0809
0.1399 0.3103 -0.0834
0.1794 0.3103 -0.0847
0.2225 0.3103 -0.0848
0.2689 0.3103 -0.0838
0.318 0.3103 -0.0817
0.3692 0.3103 -0.0786
0.4219 0.3103 -0.0746
0.4756 0.3103 -0.0698
0.5296 0.3103 -0.0645
0.5832 0.3103 -0.0586
0.6358 0.3103 -0.0524
0.6869 0.3103 -0.0461
0.7358 0.3103 -0.0397
0.7819 0.3103 -0.0334
0.8248 0.3103 -0.0273
0.8639 0.3103 -0.0216
0.8987 0.3103 -0.0163
0.9289 0.3103 -0.0116
0.9541 0.3103 -0.0076
0.974 0.3103 -0.0043
0.9884 0.3103 -0.0019
0.9971 0.3103 -0.0005
1.0 0.3103 0.0
1.0 0.4138 0.0
0.9971 0.4138 0.0002
0.9883 0.4138 0.0008
0.9737 0.4138 0.0018
0.9536 0.4138 0.0031
0.9281 0.4138 0.0047
0.8976 0.4138 0.0065
0.8624 0.4138 0.0083
0.823 0.4138 0.0103
0.7797 0.4138 0.0122
0.7332 0.4138 0.014
0.6839 0.4138 0.0157
0.6324 0.4138 0.0171
0.5795 0.4138 0.0181
0.5255 0.4138 0.0188
0.4713 0.4138 0.0189
0.4174 0.4138 0.0185
0.3646 0.4138 0.0174
0.3133 0.4138 0.0155
0.2642 0.4138 0.0129
0.2179 0.4138 0.0094
0.175 0.4138 0.0051
0.1359 0.4138 0.0
0.1011 0.4138 -0.0058
0.071 0.4138 -0.0123
0.046 0.4138 -0.0192
0.0263 0.4138 -0.0266
0.0122 0.4138 -0.0343
0.0038 0.4138 -0.0422
0.0013 0.4138 -0.0502
0.0046 0.4138 -0.0579
0.0137 0.4138 -0.0648
0.0285 0.4138 -0.0711
0.0488 0.4138 -0.0764
0.0745 0.4138 -0.0809
0.1051 0.4138 -0.0843
0.1403 0.4138 -0.0866
0.1797 0.4138 -0.0877
0.2228 0.4138 -0.0877
0.2692 0.4138 -0.0865
0.3183 0.4138 -0.0843
0.3695 0.4138 -0.081
0.4222 0.4138 -0.0768
0.4759 0.4138 -0.0718
0.5298 0.4138 -0.0662
0.5834 0.4138 -0.0602
0.636 0.4138 -0.0538
0.687 0.4138 -0.0473
0.7359 0.4138 -0.0407
0.782 0.4138 -0.0342
0.8249 0.4138 -0.028
0.8639 0.4138 -0.0221
0.8988 0.4138 -0.0167
0.9289 0.4138 -0.0119
0.9541 0.4138 -0.0077
0.974 0.4138 -0.0044
0.9884 0.4138 -0.002
0.9971 0.4138 -0.0005
1.0 0.4138 0.0
1.0 0.5172 0.0
0.9971 0.5172 0.0002
0.9883 0.5172 0.0008
0.9737 0.5172 0.0017
0.9536 0.5172 0.003
0.9281 0.5172 0.0045
0.8976 0.5172 0.0062
0.8624 0.5172 0.008
0.8229 0.5172 0.0098
0.7797 0.5172 0.0116
0.7331 0.5172 0.0133
0.6838 0.5172 0.0148
0.6324 0.5172 0.0161
0.5794 0.5172 0.017
0.5255 0.5172 0.0175
0.4713 0.5172 0.0175
0.4174 0.5172 0.0169
0.3645 0.5172 0.0157
0.3132 0.5172 0.0137
0.2642 0.5172 0.0109
0.2179 0.5172 0.0073
0.175 0.5172 0.0029
0.1359 0.5172 -0.0023
0.1011 0.5172 -0.0082
0.0711 0.5172 -0.0148
0.046 0.5172 -0.0218
0.0264 0.5172 -0.0292
0.0123 0.5172 -0.037
0.0039 0.5172 -0.0449
0.0014 0.5172 -0.0528
0.0047 0.5172 -0.0605
0.0139 0.5172 -0.0675
0.0287 0.5172 -0.0737
0.0491 0.5172 -0.079
0.0747 0.5172 -0.0834
0.1053 0.5172 -0.0867
0.1405 0.5172 -0.0889
0.1799 0.5172 -0.09
0.2231 0.5172 -0.0898
0.2695 0.5172 -0.0885
0.3185 0.5172 -0.0861
0.3697 0.5172 -0.0827
0.4224 0.5172 -0.0783
0.4761 0.5172 -0.0732
0.53 0.5172 -0.0675
0.5835 0.5172 -0.0613
0.6362 0.5172 -0.0548
0.6872 0.5172 -0.0481
0.736 0.5172 -0.0414
0.7821 0.5172 -0.0348
0.825 0.5172 -0.0284
0.864 0.5172 -0.0225
0.8988 0.5172 -0.017
0.929 0.5172 -0.0121
0.9541 0.5172 -0.0079
0.974 0.5172 -0.0045
0.9884 0.5172 -0.002
0.9971 0.5172 -0.0005
1.0 0.5172 0.0
1.0 0.6207 0.0
0.9971 0.6207 0.0002
0.9883 0.6207 0.0008
0.9737 0.6207 0.0017
0.9536 0.6207 0.0029
0.9281 0.6207 0.0043
0.8976 0.6207 0.006
0.8624 0.6207 0.0077
0.8229 0.6207 0.0095
0.7796 0.6207 0.0112
0.7331 0.6207 0.0128
0.6838 0.6207 0.0142
0.6324 0.6207 0.0153
0.5794 0.6207 0.0161
0.5254 0.6207 0.0165
0.4712 0.6207 0.0164
0.4174 0.6207 0.0158
0.3645 0.6207 0.0144
0.3132 0.6207 0.0123
0.2642 0.6207 0.0094
0.2179 0.6207 0.0057
0.175 0.6207 0.0012
0.1359 0.6207 -0.004
0.1012 0.6207 -0.01
0.0711 0.6207 -0.0166
0.0461 0.6207 -0.0237
0.0264 0.6207 -0.0312
0.0123 0.6207 -0.0389
0.004 0.6207 -0.0468
0.0015 0.6207 -0.0548
0.0049 0.6207 -0.0625
0.014 0.6207 -0.0695
0.0289 0.6207 -0.0756
0.0492 0.6207 -0.0809
0.0749 0.6207 -0.0852
0.1055 0.6207 -0.0885
0.1407 0.6207 -0.0906
0.1801 0.6207 -0.0916
0.2232 0.6207 -0.0914
0.2696 0.6207 -0.09
0.3187 0.6207 -0.0875
0.3699 0.6207 -0.0839
0.4226 0.6207 -0.0795
0.4762 0.6207 -0.0743
0.5301 0.6207 -0.0684
0.5837 0.6207 -0.0621
0.6363 0.6207 -0.0555
0.6873 0.6207 -0.0487
0.7361 0.6207 -0.0419
0.7822 0.6207 -0.0352
0.825 0.6207 -0.0288
0.864 0.6207 -0.0227
0.8988 0.6207 -0.0172
0.929 0.6207 -0.0122
0.9542 0.6207 -0.008
0.974 0.6207 -0.0045
0.9884 0.6207 -0.002
0.9971 0.6207 -0.0005
1.0 0.6207 0.0
1.0 0.7241 0.0
0.9971 0.7241 0.0002
0.9882 0.7241 0.0007
0.9737 0.7241 0.0016
0.9536 0.7241 0.0028
0.9281 0.7241 0.0042
0.8976 0.7241 0.0058
0.8624 0.7241 0.0075
0.8229 0.7241 0.0092
0.7796 0.7241 0.0108
0.7331 0.7241 0.0124
0.6838 0.7241 0.0137
0.6323 0.7241 0.0148
0.5793 0.7241 0.0155
0.5254 0.7241 0.0158
0.4712 0.7241 0.0156
0.4173 0.7241 0.0149
0.3645 0.7241 0.0134
0.3132 0.7241 0.0113
0.2642 0.7241 0.0083
0.2179 0.7241 0.0045
0.175 0.7241 -0.0
0.1359 0.7241 -0.0054
0.1012 0.7241 -0.0114
0.0711 0.7241 -0.018
0.0461 0.7241 -0.0252
0.0265 0.7241 -0.0327
0.0124 0.7241 -0.0405
0.0041 0.7241 -0.0484
0.0016 0.7241 -0.0564
0.005 0.7241 -0.064
0.0141 0.7241 -0.071
0.029 0.7241 -0.0771
0.0493 0.7241 -0.0824
0.075 0.7241 -0.0866
0.1056 0.7241 -0.0899
0.1408 0.7241 -0.0919
0.1802 0.7241 -0.0929
0.2234 0.7241 -0.0926
0.2698 0.7241 -0.0911
0.3188 0.7241 -0.0885
0.37 0.7241 -0.0849
0.4227 0.7241 -0.0804
[...]
POINT_DATA 2010
SCALARS cp1 float
LOOKUP_TABLE default
0.410212
0.325044
0.219823
0.158384
0.101679
0.0555693
0.0118085
-0.0320197
-0.0712719
-0.107185
-0.146559
-0.185941
-0.227187
-0.268206
-0.309043
-0.357489
-0.40677
-0.458005
-0.515763
-0.572808
-0.634632
-0.707781
-0.787439
-0.883468
-1.01549
-1.20459
-1.5186
-2.26746
-3.23179
-1.30509
1.26291
1.21342
0.743578
0.472022
0.287239
0.160203
0.0662287
0.00286247
-0.0342794
-0.0603776
-0.0735992
-0.0752226
-0.0742244
-0.0683846
-0.0581043
-0.0474778
-0.0350193
-0.0218959
-0.00634539
0.0120625
0.0286647
0.0519061
0.0791061
0.106857
0.14424
0.185692
0.241442
0.349293
0.427649
0.420084
0.344955
0.239849
0.165506
0.104899
0.0552398
0.00987766
-0.0334535
-0.0728415
-0.110907
-0.150944
-0.19053
-0.231585
-0.274023
-0.317757
-0.367536
-0.419572
-0.474367
-0.535704
-0.599524
-0.669243
-0.751065
-0.843506
-0.953579
-1.09727
-1.29508
-1.5849
-1.95359
-1.56289
0.311484
1.56608
1.00884
0.615831
0.38721
0.23515
0.130264
0.052848
-0.000146626
-0.0333819
-0.056122
-0.0681533
-0.0706424
-0.069601
-0.0650316
-0.0560892
-0.0446258
-0.0322357
-0.0195925
-0.0041477
0.0133804
0.0312505
0.0545931
0.0812628
0.10977
0.147068
0.192027
0.255578
0.356521
0.426983
0.433593
0.350923
0.237917
0.162767
0.102681
0.0519286
0.00687434
-0.0364023
-0.0759419
-0.114031
-0.154114
-0.19358
-0.234319
-0.277603
-0.322062
-0.372543
-0.426408
-0.482023
-0.544194
-0.60968
-0.680312
-0.762623
-0.85591
-0.961119
-1.08891
-1.25742
-1.48875
-1.83617
-1.75861
-0.149213
1.40233
1.00563
0.566401
0.333532
0.193496
0.101404
0.0333884
-0.0119329
-0.0401067
-0.0591416
-0.0692882
-0.0708714
-0.0687761
-0.0643952
-0.0561529
-0.0438729
-0.0311034
-0.0190524
-0.00350976
0.0137065
0.0313385
0.0544375
0.0805361
0.108187
0.143798
0.187991
0.246467
0.342987
0.41431
0.437307
0.353392
0.237198
0.162087
0.102766
0.0507389
0.00603966
-0.0367471
-0.0775428
-0.115261
-0.154306
-0.194498
-0.235519
-0.278621
-0.323332
-0.373004
-0.427271
-0.483067
-0.542489
-0.606623
-0.675619
-0.753719
-0.842781
-0.941004
-1.05788
-1.21909
-1.45103
-1.81113
-1.73757
0.0924991
1.46231
0.965682
0.545228
0.318799
0.178974
0.0862434
0.020736
-0.0220963
-0.0482167
-0.0648271
-0.073906
-0.0753263
-0.071402
-0.0652521
-0.0571296
-0.0450789
-0.03187
-0.0195009
-0.00374242
0.0138646
0.0318554
0.0538736
0.0791812
0.107589
0.143749
0.189317
0.246746
0.338326
0.406519
0.430549
0.3481
0.234429
0.160968
0.101765
0.049376
0.00462606
-0.036761
-0.0774198
-0.115832
-0.154212
-0.194974
-0.236421
-0.278718
-0.323756
-0.372307
-0.425662
-0.481672
-0.539712
-0.602869
-0.671146
-0.745965
-0.831647
-0.926798
-1.04035
-1.19939
-1.4259
-1.76579
-1.66122
0.179595
1.45762
0.945837
0.529269
0.306123
0.166215
0.0740122
0.0119359
-0.0293597
-0.0544631
-0.0697087
-0.0784803
-0.0797157
-0.0745728
-0.0667989
-0.0579605
-0.046628
-0.0335136
-0.0202091
-0.0042974
0.0138106
0.0323717
0.053198
0.0775539
0.106756
0.144462
0.190936
0.249542
0.343176
0.413812
0.427617
0.34451
0.232026
0.159534
0.101276
0.0499668
0.00400577
-0.0374563
-0.0771742
-0.116074
-0.154832
-0.195011
-0.235883
-0.277953
-0.322749
-0.37086
-0.423561
-0.479237
-0.536812
-0.598445
-0.664937
-0.738237
-0.821887
-0.914823
-1.02589
-1.18182
-1.40045
-1.72517
-1.60202
0.219431
1.44677
0.927026
0.514521
0.293572
0.155656
0.0650142
0.00497685
-0.0360793
-0.0610433
-0.0750535
-0.0825589
-0.0826549
-0.0774665
-0.069518
-0.0593623
-0.0480822
-0.0353526
-0.020863
-0.00469671
0.0131222
0.0323036
0.0530969
0.0768004
0.106111
0.14359
0.191229
0.252287
0.346717
0.416856
0.424621
0.341784
0.230577
0.158204
0.100797
0.0512563
0.00474992
-0.0378901
-0.0773871
-0.116126
-0.155102
-0.194531
-0.234536
-0.276494
-0.32079
-0.369063
-0.42183
-0.476224
-0.533271
-0.593471
-0.65811
-0.731256
-0.81271
-0.904169
-1.01562
-1.16243
-1.37503
-1.69558
-1.56557
0.262505
1.44649
0.912268
0.500442
0.283406
0.14667
0.0575911
-0.00145793
-0.0420331
-0.0674047
-0.0803995
-0.0859229
-0.0849862
-0.0806887
-0.0725856
-0.060876
-0.0496531
-0.0371496
-0.0215376
-0.00512393
0.0115869
0.0308661
0.0532193
0.0773376
0.1062
0.143235
0.19085
0.253115
0.348671
0.419284
0.420702
0.340671
0.232298
0.15976
0.0999183
0.0503901
0.00533224
-0.037104
-0.0773228
-0.11573
-0.154126
-0.193222
-0.233191
-0.275314
-0.319328
-0.36698
-0.419297
-0.472718
-0.528982
-0.588506
-0.652869
-0.725237
-0.802753
-0.893178
-1.00696
-1.14853
-1.35371
-1.66778
-1.512
0.311298
1.44229
0.899132
0.488419
0.273448
0.139401
0.050881
-0.00811965
-0.0472159
-0.0726073
-0.0852803
-0.0892017
-0.0875486
-0.0835638
-0.07508
-0.0628116
-0.051711
-0.0389339
-0.0226707
-0.00572745
0.0102598
0.0288403
0.0529108
0.0784535
0.106826
0.143598
0.189109
0.249625
0.348696
0.422771
0.418684
0.340086
0.23324
0.160216
0.0989841
0.0489089
0.00537875
-0.0357538
-0.0767592
-0.115535
-0.152662
-0.191112
-0.231495
-0.273918
-0.318087
-0.364656
-0.41588
-0.469371
-0.524332
-0.583416
-0.648466
-0.719096
-0.794138
-0.883307
-0.995954
-1.13593
-1.33678
-1.64031
-1.46139
0.347521
1.43429
0.884947
0.476981
0.264256
0.13258
0.0440096
-0.0150787
-0.0517887
-0.0762811
-0.090037
-0.0932635
-0.0902079
-0.0857259
-0.0775772
-0.0653677
-0.053285
-0.04013
-0.0247924
-0.00739313
0.00988723
0.0281306
0.0521226
0.0783277
0.106189
0.143398
0.189101
0.248953
0.349674
0.424988
0.418577
0.339386
0.231173
0.158233
0.0988954
0.0499849
0.00603659
-0.0351133
-0.0759248
-0.114631
-0.151579
-0.189743
-0.229951
-0.271923
-0.315496
-0.361732
-0.412433
-0.465956
-0.520318
-0.579011
-0.643788
-0.712287
-0.787382
-0.875783
-0.982238
-1.11962
-1.31978
-1.61529
-1.43049
0.368628
1.42984
0.871603
0.468859
0.256571
0.125181
0.0364332
-0.0216966
-0.0561812
-0.0793843
-0.0939881
-0.0974631
-0.0933784
-0.088189
-0.0801855
-0.0677606
-0.0546178
-0.0410728
-0.0266615
-0.00967404
0.00888313
0.0281794
0.0517155
0.0774315
0.105484
0.142816
0.189022
0.25039
0.351863
0.425623
0.418764
0.338578
0.230201
0.157962
0.0992554
0.0511438
0.00668962
-0.0351997
-0.0751117
-0.11251
-0.150324
-0.189078
-0.228153
-0.269521
-0.312351
-0.358361
-0.40926
-0.462272
-0.51669
-0.575202
-0.638439
-0.705061
-0.780293
-0.868378
-0.96969
-1.10445
-1.3026
-1.59189
-1.39193
0.39677
1.4282
0.861252
0.459952
0.24874
0.11713
0.0292416
-0.0270907
-0.0612167
-0.0834073
-0.0970001
-0.100763
-0.0969728
-0.0909913
-0.0822966
-0.0700392
-0.0568446
-0.0426879
-0.0274186
-0.0112217
0.00667116
0.027288
0.0514143
0.0767451
0.105452
0.141883
0.18677
0.251281
0.35459
0.426626
0.418031
0.336793
0.229884
0.160037
0.100272
0.0508795
0.00645024
-0.0347826
-0.0737892
-0.110379
-0.148632
-0.188144
-0.225851
-0.266754
-0.309819
-0.35511
-0.405821
-0.458781
-0.512564
-0.570382
-0.632626
-0.697545
-0.77187
-0.861179
-0.960822
-1.09278
-1.28631
-1.56354
-1.36222
0.425027
1.42261
0.850218
0.449244
0.239737
0.108632
0.0236257
-0.0312459
-0.0668402
-0.0886132
-0.100012
-0.10327
-0.100708
-0.0942981
-0.0841782
-0.0720885
-0.0592216
-0.0449611
-0.0285292
-0.0120789
0.00484011
0.0259245
0.050566
0.0759026
0.10522
0.141842
0.186566
0.252121
0.355782
0.426477
0.41727
0.335002
0.228154
0.160587
0.101536
0.0513282
0.00725504
-0.0332888
-0.0725102
-0.109352
-0.147019
-0.186096
-0.223383
-0.264048
-0.307611
-0.352239
-0.401713
-0.454537
-0.507392
-0.564526
-0.627265
-0.691184
-0.764184
-0.853714
-0.952108
-1.08036
-1.26777
-1.53551
-1.32433
0.43859
1.41742
0.839664
0.439127
0.22983
0.10143
0.0180763
-0.0361131
-0.0723
-0.093635
-0.10314
-0.106144
-0.104846
-0.0977378
-0.0862691
-0.0744025
-0.0612811
-0.0470121
-0.0306276
-0.0131758
0.00424722
0.0246218
0.0486552
0.0751528
0.105744
0.142872
0.187438
0.252165
0.355308
0.425633
0.417775
0.334957
0.227111
0.159931
0.101603
0.0518354
0.00912648
-0.0315987
-0.071863
-0.108837
-0.145535
-0.182971
-0.220514
-0.261864
-0.304936
-0.348885
-0.397807
-0.449791
-0.501743
-0.558609
-0.621403
-0.685334
-0.75747
-0.844907
-0.941899
-1.06645
-1.24856
-1.51144
-1.28105
0.474653
1.41237
0.827132
0.428375
0.220912
0.0947345
0.0120242
-0.042469
-0.0773932
-0.0980323
-0.106865
-0.110012
-0.108783
-0.100593
-0.0889046
-0.0770218
-0.0629525
-0.0487531
-0.0332422
-0.0147797
0.0041223
0.0235636
0.0465661
0.0745667
0.106056
0.142718
0.188034
0.252989
0.355354
0.425725
0.418113
0.33523
0.226486
0.159555
0.102412
0.0527079
0.00996493
-0.030999
-0.070915
-0.107181
-0.143625
-0.17998
-0.217815
-0.25933
-0.301138
-0.344931
-0.394253
-0.445251
-0.496832
-0.553063
-0.614297
-0.678563
-0.750274
-0.834722
-0.931191
-1.05316
-1.22699
-1.48273
-1.24662
0.495089
1.40715
0.813898
0.418474
0.211763
0.0877899
0.00506356
-0.0490849
-0.0821645
-0.102711
-0.111909
-0.114461
-0.112001
-0.10312
-0.0918559
-0.0796397
-0.0650525
-0.0507467
-0.0352932
-0.0164914
0.00319466
0.0226379
0.045621
0.0739051
0.104675
0.141273
0.188767
0.254959
0.356062
0.425835
0.418185
0.334836
0.224869
0.158824
0.104251
0.0542959
0.00986537
-0.0303845
-0.0685227
-0.104373
-0.141007
-0.177775
-0.215654
-0.255977
-0.297168
-0.341253
-0.389833
-0.439673
-0.491993
-0.547827
-0.60735
-0.671836
-0.741946
-0.822566
-0.919441
-1.04057
-1.20771
-1.45361
-1.20539
0.522487
1.40069
0.799394
0.407075
0.202456
0.0806863
-0.0019224
-0.0555007
-0.0869842
-0.107654
-0.117648
-0.118835
-0.115011
-0.106065
-0.0949194
-0.0826637
-0.0679427
-0.0526519
-0.0364094
-0.0181581
0.00108416
0.021658
0.0454715
0.0723792
0.103291
0.140999
0.188291
0.25561
0.357233
0.425936
0.418257
0.334015
0.224376
0.159508
0.105054
0.0547642
0.0102102
-0.0284237
-0.0651669
-0.102121
-0.138606
-0.175204
-0.213295
-0.252398
-0.293458
-0.337698
-0.384372
-0.433114
-0.486377
-0.542367
-0.600383
-0.664206
-0.732369
-0.809899
-0.907045
-1.0253
-1.18795
-1.42566
-1.15714
0.554091
1.39295
0.78553
0.393979
0.191709
0.0716063
-0.00911925
-0.0617773
-0.0932294
-0.113269
-0.122596
-0.122479
-0.118391
-0.110071
-0.0986333
-0.0857905
-0.0704844
-0.0543938
-0.0378344
-0.0200596
-0.0012342
0.020363
0.0448873
0.0710998
0.102555
0.140343
0.18637
0.255707
0.359501
0.427218
0.418133
0.332713
0.225142
0.16158
0.104749
0.0551383
0.0123385
-0.0259542
-0.0626425
-0.100622
-0.136518
-0.171757
-0.210064
-0.248504
-0.288977
-0.333588
-0.378868
-0.426986
-0.480546
-0.535536
-0.59211
-0.655227
-0.722259
-0.798069
-0.892707
-1.0074
-1.16763
-1.39674
-1.10311
0.592857
1.38317
0.766633
0.382295
0.181682
0.061901
-0.0172891
-0.0688134
-0.10058
-0.119184
-0.126827
-0.126551
-0.12246
-0.114416
-0.102546
-0.0885394
-0.0727526
-0.0565885
-0.0402964
-0.0223816
-0.00298242
0.0190561
0.0436929
0.0706131
0.101812
0.138796
0.184972
0.25451
0.360436
0.430412
0.416767
0.332294
0.227123
0.16288
0.104377
0.0563529
0.0149464
-0.02421
-0.0609303
-0.0980479
-0.133447
-0.168134
-0.206226
-0.244117
-0.284195
-0.328415
-0.373275
-0.421215
-0.473955
-0.527099
-0.582732
-0.645668
-0.711796
-0.786161
-0.877682
-0.987202
-1.14299
-1.36572
-1.05919
0.621395
1.37632
0.750051
0.367008
0.170925
0.0507548
-0.0261715
-0.0758811
-0.107965
-0.125117
-0.131324
-0.1318
-0.127317
-0.11836
-0.105929
-0.0912372
-0.0757395
-0.0595636
-0.0427754
-0.0247217
-0.00504987
0.017409
0.0421703
0.0692954
0.100985
0.139265
0.18486
0.250612
0.358846
0.434305
0.411945
0.332144
0.229802
0.162864
0.104629
0.0589975
0.0172181
-0.0230621
-0.0591887
-0.0947165
-0.129628
-0.164367
-0.201831
-0.239389
-0.279059
-0.32197
-0.366895
-0.41497
-0.466075
-0.518194
-0.573368
-0.634915
-0.699814
-0.773295
-0.862203
-0.96584
-1.11525
-1.32953
-1.00903
0.660793
1.36627
0.728482
0.349073
0.157378
0.0388494
-0.0356203
-0.0831085
-0.115691
-0.131771
-0.136239
-0.137252
-0.132802
-0.122162
-0.108879
-0.0946964
-0.0796825
-0.0627956
-0.0446744
-0.0267491
-0.00762118
0.0148512
0.0398686
0.067556
0.100264
0.139904
0.185744
0.249697
0.358685
0.437501
0.412936
0.334837
0.232375
0.163244
0.106062
0.0617923
0.0198593
-0.0205947
-0.0569794
-0.0916904
-0.125984
-0.160074
-0.196628
-0.234239
-0.273024
-0.314608
-0.359716
-0.407484
-0.457186
-0.508921
-0.563585
-0.623038
-0.68592
-0.757445
-0.84523
-0.947865
-1.08811
-1.28322
-0.946479
0.689524
1.35509
0.707181
0.331416
0.142865
0.0265043
-0.0462754
-0.0918519
-0.123801
-0.138859
-0.141867
-0.142653
-0.138125
-0.126275
-0.112588
-0.0985938
-0.0831147
-0.0659968
-0.0476667
-0.0294545
-0.00967596
0.0127624
0.0372822
0.0655554
0.0984002
0.137802
0.185047
0.248204
0.352583
0.429068
0.419523
0.33959
0.23501
0.166062
0.108721
0.0628247
0.0223069
-0.0162219
-0.0535987
-0.0884547
-0.121959
-0.155266
-0.191054
-0.228613
-0.266043
-0.306806
-0.351841
-0.398231
-0.446964
-0.498558
-0.552446
-0.610103
-0.671116
-0.739485
-0.825114
-0.927871
-1.0572
-1.23235
-0.882858
0.725225
1.34137
0.686224
0.311191
0.12595
0.0136634
-0.0575779
-0.102275
-0.132096
-0.146116
-0.148587
-0.148306
-0.142885
-0.131123
-0.117373
-0.102487
-0.0858384
-0.0689642
-0.0513998
-0.0328073
-0.0118091
0.0108009
0.0349049
0.0632553
0.0951115
0.13419
0.182313
0.242622
0.338411
0.409694
0.428401
0.347366
0.238695
0.169162
0.111371
0.0636754
0.0249248
-0.0117379
-0.049423
-0.0842712
-0.117336
-0.15009
-0.184663
-0.221501
-0.258362
-0.298862
-0.342686
-0.386906
-0.435041
-0.486905
-0.539598
-0.594597
-0.655107
-0.721037
-0.801164
-0.900737
-1.0227
-1.18032
-0.816093
0.759988
1.32595
0.658954
0.288841
0.106696
-0.000946328
-0.0692937
-0.112833
-0.140482
-0.15392
-0.156814
-0.154664
-0.147297
-0.136078
-0.122392
-0.106547
-0.0890057
-0.0716885
-0.0546069
-0.0362605
-0.0148984
0.00754446
0.0319471
0.060358
0.0916307
0.131138
0.18093
0.239161
0.329125
0.397542
0.442348
0.359621
0.24331
0.17091
0.114419
0.0656857
0.0271972
-0.00838169
-0.0447018
-0.0788987
-0.11234
-0.144643
-0.177171
-0.212763
-0.249809
-0.289509
-0.330982
-0.374233
-0.422057
-0.473264
-0.524418
-0.576163
-0.636203
-0.701818
-0.775971
-0.870535
-0.986474
-1.12391
-0.735896
0.805173
1.30494
0.625242
0.266267
0.0866595
-0.0180327
-0.0827401
-0.124221
-0.149633
-0.162135
-0.165342
-0.161217
-0.152012
-0.140779
-0.126938
-0.11061
-0.0928426
-0.0750487
-0.0582445
-0.0398325
-0.0179807
0.00414631
0.0283547
0.0568869
0.0884105
0.128707
0.178837
0.236301
0.324336
0.391274
0.44517
0.363612
0.245192
0.171841
0.117225
0.0683451
0.0285867
-0.00637106
-0.0399761
-0.0726493
-0.106097
-0.137828
-0.168868
-0.203012
-0.23939
-0.277234
-0.316792
-0.360116
-0.406949
-0.456029
-0.506349
-0.556374
-0.614155
-0.678944
-0.749122
-0.83567
-0.94328
-1.06524
-0.644965
0.858953
1.2817
0.592678
0.241351
0.0652797
-0.0369178
-0.0985792
-0.137506
-0.159747
-0.170494
-0.173032
-0.167652
-0.157283
-0.145028
-0.130761
-0.114758
-0.0971816
-0.0790524
-0.0619044
-0.0430355
-0.0214241
0.000102262
0.0247028
0.0536836
0.0855759
0.125379
0.174594
0.232644
0.32235
0.390336
0.438079
0.359937
0.245355
0.171428
0.116788
0.0704228
0.0307683
-0.00428893
-0.0359438
-0.066551
-0.0985714
-0.12902
-0.158607
-0.191245
-0.226524
-0.262731
-0.300775
-0.343115
-0.387753
-0.434569
-0.483962
-0.534478
-0.589549
-0.650173
-0.717329
-0.7954
-0.893583
-1.00022
-0.554927
0.91249
1.25345
0.554551
0.21027
0.0420691
-0.0569132
-0.117143
-0.152445
-0.170017
-0.178471
-0.180241
-0.173804
-0.162085
-0.148668
-0.134094
-0.11849
-0.101125
-0.082954
-0.0653723
-0.0465437
-0.0261527
-0.00484171
0.02004
0.049545
0.0823085
0.121485
0.16999
0.228798
0.322043
0.393965
0.433682
0.355356
0.242897
0.168524
0.11348
0.0705928
0.0334384
-0.000957744
-0.0315352
-0.0601043
-0.0896438
-0.118422
-0.146105
-0.176326
-0.210178
-0.244891
-0.281327
-0.321286
-0.363372
-0.408342
-0.455284
-0.505734
-0.558741
-0.615886
-0.679235
-0.749644
-0.839242
-0.926501
-0.449535
0.961524
1.21837
0.505594
0.172379
0.0136664
-0.079043
-0.136277
-0.168014
-0.180614
-0.185924
-0.186158
-0.178159
-0.165241
-0.151488
-0.136753
-0.1209
-0.103881
-0.086586
-0.0696314
-0.0515319
-0.0319078
-0.0110003
0.0130332
0.0428853
0.0768616
0.116025
0.165359
0.225833
0.321293
0.395055
0.431238
0.347359
0.235314
0.16337
0.111281
0.0704012
0.035808
0.00354156
-0.0258243
-0.0518322
-0.0781017
-0.104931
-0.130949
-0.158626
-0.189579
-0.221595
-0.255621
-0.292594
-0.332364
-0.374751
-0.418345
-0.466817
-0.518301
-0.573639
-0.633304
-0.696183
-0.775389
-0.841241
-0.329542
1.023
1.17304
0.449167
0.126832
-0.0232577
-0.106312
-0.156591
-0.182414
-0.190607
-0.192243
-0.189298
-0.179079
-0.165622
-0.152084
-0.137364
-0.121696
-0.105278
-0.0896901
-0.0749678
-0.0584925
-0.0396172
-0.0199201
0.00244331
0.0314718
0.065899
0.107672
0.160935
0.226144
0.324531
0.401229
0.361286
0.295659
0.203362
0.14336
0.0985246
0.0603224
0.0288784
0.000930359
-0.0250861
-0.047249
-0.0688761
-0.0919187
-0.114813
-0.138873
-0.164992
-0.191883
-0.220805
-0.252475
-0.287197
-0.323044
-0.360238
-0.402599
-0.447746
-0.49706
-0.550974
-0.607495
-0.668657
-0.671627
-0.131824
1.01163
1.06046
0.387828
0.0739241
-0.0647185
-0.134627
-0.171804
-0.187699
-0.191445
-0.190333
-0.184707
-0.173804
-0.161131
-0.148448
-0.13502
-0.121283
-0.106925
-0.0941323
-0.0830378
-0.0702405
-0.0551924
-0.0408855
-0.0256681
-0.00520343
0.0204306
0.0547006
0.103308
0.175899
0.290456
0.375094
0.239337
0.193445
0.131491
0.0997628
0.0689973
0.0363482
0.0110661
-0.0100442
-0.0312932
-0.0475433
-0.0631781
-0.0815085
-0.0991625
-0.118028
-0.138579
-0.158685
-0.180522
-0.204916
-0.232626
-0.25912
-0.286113
-0.319344
-0.353527
-0.391682
-0.437816
-0.492241
-0.568978
-0.673702
-0.114771
1.24078
1.11713
0.168898
-0.0763078
-0.146288
-0.177736
-0.191685
-0.191397
-0.187919
-0.184268
-0.176788
-0.165852
-0.15427
-0.142807
-0.131558
-0.120848
-0.108936
-0.0997051
-0.0935715
-0.0858247
-0.0762656
-0.071076
-0.0685596
-0.0629383
-0.0554041
-0.0435543
-0.0169616
0.0499445
0.200611
0.316096
-15.3484
-9.62302
-2.6666
-1.41608
-0.764351
-0.473988
-0.307165
-0.227778
-0.18169
-0.155155
-0.143709
-0.141132
-0.142795
-0.148754
-0.159325
-0.171556
-0.186696
-0.205894
-0.227592
-0.247328
-0.269266
-0.294453
-0.316721
-0.34109
-0.367749
-0.395978
-0.431782
-0.527545
-0.061789
0.650036
-14.0439
-8.32659
-2.81978
-1.43224
-0.859422
-0.580979
-0.418344
-0.3269
-0.268958
-0.231403
-0.208324
-0.194435
-0.186593
-0.184265
-0.186938
-0.192278
-0.20064
-0.212391
-0.226033
-0.239208
-0.254085
-0.270627
-0.285723
-0.30285
-0.321506
-0.340388
-0.359366
-0.371057
-0.000637281
0.693293
-11.7358
-7.04313
-2.50589
-1.39942
-0.927425
-0.665968
-0.501419
-0.397208
-0.328497
-0.281626
-0.250277
-0.228773
-0.214951
-0.207225
-0.20486
-0.205448