# vtk DataFile Version 2.0
scalar
ASCII
DATASET UNSTRUCTURED_GRID
POINTS 2010 float
1.0 0.0 0.0
0.9971 0.0 0.0004
0.9883 0.0 0.0014
0.9738 0.0 0.0031
0.9538 0.0 0.0054
0.9284 0.0 0.0083
0.898 0.0 0.0116
0.863 0.0 0.0152
0.8237 0.0 0.0192
0.7806 0.0 0.0232
0.7342 0.0 0.0274
0.6851 0.0 0.0315
0.6338 0.0 0.0355
0.5809 0.0 0.0392
0.5271 0.0 0.0425
0.4729 0.0 0.0454
0.4191 0.0 0.0477
0.3662 0.0 0.0492
0.3149 0.0 0.05
0.2658 0.0 0.0498
0.2194 0.0 0.0486
0.1763 0.0 0.0465
0.137 0.0 0.0434
0.102 0.0 0.0393
0.0716 0.0 0.0344
0.0462 0.0 0.0286
0.0262 0.0 0.0222
0.0117 0.0 0.0153
0.0029 0.0 0.0079
0.0 0.0 0.0
0.0029 0.0 -0.0079
0.0117 0.0 -0.0153
0.0262 0.0 -0.0222
0.0462 0.0 -0.0286
0.0716 0.0 -0.0344
0.102 0.0 -0.0393
0.137 0.0 -0.0434
0.1763 0.0 -0.0465
0.2194 0.0 -0.0486
0.2658 0.0 -0.0498
0.3149 0.0 -0.05
0.3662 0.0 -0.0492
0.4191 0.0 -0.0477
0.4729 0.0 -0.0454
0.5271 0.0 -0.0425
0.5809 0.0 -0.0392
0.6338 0.0 -0.0355
0.6851 0.0 -0.0315
0.7342 0.0 -0.0274
0.7806 0.0 -0.0232
0.8237 0.0 -0.0192
0.863 0.0 -0.0152
0.898 0.0 -0.0116
0.9284 0.0 -0.0083
0.9538 0.0 -0.0054
0.9738 0.0 -0.0031
0.9883 0.0 -0.0014
0.9971 0.0 -0.0004
1.0 0.0 0.0
1.0 0.1034 0.0
0.9971 0.1034 0.0003
0.9883 0.1034 0.0011
0.9738 0.1034 0.0025
0.9537 0.1034 0.0044
0.9283 0.1034 0.0067
0.8978 0.1034 0.0094
0.8627 0.1034 0.0122
0.8233 0.1034 0.0153
0.7801 0.1034 0.0184
0.7337 0.1034 0.0216
0.6845 0.1034 0.0246
0.6331 0.1034 0.0275
0.5801 0.1034 0.03
0.5263 0.1034 0.0322
0.4721 0.1034 0.0339
0.4182 0.1034 0.035
0.3653 0.1034 0.0354
0.314 0.1034 0.035
0.2649 0.1034 0.0337
0.2185 0.1034 0.0316
0.1755 0.1034 0.0285
0.1363 0.1034 0.0245
0.1013 0.1034 0.0197
0.071 0.1034 0.0141
0.0458 0.1034 0.0078
0.0259 0.1034 0.001
0.0116 0.1034 -0.0063
0.003 0.1034 -0.0139
0.0002 0.1034 -0.0218
0.0033 0.1034 -0.0296
0.0123 0.1034 -0.0369
0.0269 0.1034 -0.0435
0.0471 0.1034 -0.0495
0.0725 0.1034 -0.0546
0.103 0.1034 -0.0589
0.1382 0.1034 -0.0622
0.1775 0.1034 -0.0645
0.2207 0.1034 -0.0657
0.2671 0.1034 -0.0658
0.3162 0.1034 -0.0649
0.3675 0.1034 -0.0631
0.4203 0.1034 -0.0604
0.474 0.1034 -0.0569
0.5281 0.1034 -0.0529
0.5818 0.1034 -0.0483
0.6346 0.1034 -0.0435
0.6858 0.1034 -0.0384
0.7349 0.1034 -0.0332
0.7812 0.1034 -0.028
0.8242 0.1034 -0.023
0.8634 0.1034 -0.0182
0.8983 0.1034 -0.0138
0.9286 0.1034 -0.0098
0.9539 0.1034 -0.0064
0.9739 0.1034 -0.0037
0.9883 0.1034 -0.0017
0.9971 0.1034 -0.0004
1.0 0.1034 0.0
1.0 0.2069 0.0
0.9971 0.2069 0.0003
0.9883 0.2069 0.0011
0.9737 0.2069 0.0024
0.9537 0.2069 0.0041
0.9282 0.2069 0.0063
0.8978 0.2069 0.0087
0.8626 0.2069 0.0114
0.8232 0.2069 0.0142
0.78 0.2069 0.0171
0.7335 0.2069 0.0199
0.6843 0.2069 0.0227
0.6329 0.2069 0.0252
0.58 0.2069 0.0274
0.5261 0.2069 0.0293
0.4719 0.2069 0.0306
0.418 0.2069 0.0314
0.3651 0.2069 0.0315
0.3138 0.2069 0.0307
0.2647 0.2069 0.0292
0.2184 0.2069 0.0267
0.1753 0.2069 0.0234
0.1361 0.2069 0.0192
0.1012 0.2069 0.0141
0.071 0.2069 0.0083
0.0458 0.2069 0.0019
0.0259 0.2069 -0.005
0.0116 0.2069 -0.0124
0.0031 0.2069 -0.0201
0.0004 0.2069 -0.028
0.0035 0.2069 -0.0358
0.0125 0.2069 -0.043
0.0272 0.2069 -0.0495
0.0474 0.2069 -0.0554
0.0729 0.2069 -0.0604
0.1034 0.2069 -0.0644
0.1386 0.2069 -0.0675
0.1779 0.2069 -0.0695
0.2211 0.2069 -0.0705
0.2675 0.2069 -0.0703
0.3166 0.2069 -0.0691
0.3679 0.2069 -0.067
0.4207 0.2069 -0.0639
0.4744 0.2069 -0.0602
0.5284 0.2069 -0.0558
0.5822 0.2069 -0.0509
0.6349 0.2069 -0.0457
0.6861 0.2069 -0.0403
0.7351 0.2069 -0.0348
0.7813 0.2069 -0.0294
0.8243 0.2069 -0.0241
0.8635 0.2069 -0.0191
0.8984 0.2069 -0.0144
0.9287 0.2069 -0.0103
0.954 0.2069 -0.0067
0.9739 0.2069 -0.0038
0.9884 0.2069 -0.0017
0.9971 0.2069 -0.0004
1.0 0.2069 0.0
1.0 0.3103 0.0
0.9971 0.3103 0.0003
0.9883 0.3103 0.001
0.9737 0.3103 0.0023
0.9536 0.3103 0.004
0.9282 0.3103 0.006
0.8977 0.3103 0.0083
0.8626 0.3103 0.0109
0.8232 0.3103 0.0135
0.78 0.3103 0.0163
0.7335 0.3103 0.0189
0.6842 0.3103 0.0215
0.6328 0.3103 0.0238
0.5799 0.3103 0.0259
0.526 0.3103 0.0275
0.4718 0.3103 0.0287
0.4179 0.3103 0.0292
0.365 0.3103 0.0291
0.3137 0.3103 0.0282
0.2646 0.3103 0.0264
0.2183 0.3103 0.0238
0.1752 0.3103 0.0203
0.1361 0.3103 0.0159
0.1012 0.3103 0.0107
0.0709 0.3103 0.0048
0.0458 0.3103 -0.0017
0.026 0.3103 -0.0087
0.0117 0.3103 -0.0161
0.0032 0.3103 -0.0238
0.0005 0.3103 -0.0318
0.0037 0.3103 -0.0395
0.0127 0.3103 -0.0467
0.0274 0.3103 -0.0532
0.0476 0.3103 -0.0589
0.0731 0.3103 -0.0638
0.1037 0.3103 -0.0678
0.1388 0.3103 -0.0708
0.1782 0.3103 -0.0726
0.2213 0.3103 -0.0734
0.2677 0.3103 -0.0731
0.3169 0.3103 -0.0717
0.3681 0.3103 -0.0693
0.4209 0.3103 -0.0661
0.4746 0.3103 -0.0621
0.5287 0.3103 -0.0576
0.5823 0.3103 -0.0525
0.6351 0.3103 -0.0471
0.6862 0.3103 -0.0415
0.7352 0.3103 -0.0358
0.7814 0.3103 -0.0302
0.8244 0.3103 -0.0247
0.8636 0.3103 -0.0196
0.8985 0.3103 -0.0148
0.9287 0.3103 -0.0106
0.954 0.3103 -0.0069
0.9739 0.3103 -0.0039
0.9884 0.3103 -0.0018
0.9971 0.3103 -0.0004
1.0 0.3103 0.0
1.0 0.4138 0.0
0.9971 0.4138 0.0003
0.9883 0.4138 0.001
0.9737 0.4138 0.0022
0.9536 0.4138 0.0038
0.9282 0.4138 0.0058
0.8977 0.4138 0.0081
0.8626 0.4138 0.0105
0.8231 0.4138 0.0131
0.7799 0.4138 0.0157
0.7334 0.4138 0.0182
0.6842 0.4138 0.0207
0.6328 0.4138 0.0229
0.5798 0.4138 0.0248
0.5259 0.4138 0.0263
0.4717 0.4138 0.0273
0.4178 0.4138 0.0277
0.3649 0.4138 0.0275
0.3136 0.4138 0.0264
0.2645 0.4138 0.0245
0.2182 0.4138 0.0218
0.1752 0.4138 0.0182
0.136 0.4138 0.0137
0.1011 0.4138 0.0084
0.0709 0.4138 0.0025
0.0458 0.4138 -0.0041
0.026 0.4138 -0.0112
0.0117 0.4138 -0.0186
0.0032 0.4138 -0.0264
0.0006 0.4138 -0.0343
0.0038 0.4138 -0.0421
0.0128 0.4138 -0.0492
0.0275 0.4138 -0.0557
0.0478 0.4138 -0.0614
0.0733 0.4138 -0.0662
0.1038 0.4138 -0.0701
0.139 0.4138 -0.073
0.1784 0.4138 -0.0747
0.2215 0.4138 -0.0754
0.2679 0.4138 -0.075
0.317 0.4138 -0.0734
0.3683 0.4138 -0.071
0.4211 0.4138 -0.0676
0.4748 0.4138 -0.0635
0.5288 0.4138 -0.0588
0.5825 0.4138 -0.0536
0.6352 0.4138 -0.048
0.6863 0.4138 -0.0423
0.7353 0.4138 -0.0365
0.7815 0.4138 -0.0308
0.8245 0.4138 -0.0252
0.8636 0.4138 -0.0199
0.8985 0.4138 -0.0151
0.9288 0.4138 -0.0107
0.954 0.4138 -0.007
0.9739 0.4138 -0.004
0.9884 0.4138 -0.0018
0.9971 0.4138 -0.0005
1.0 0.4138 0.0
1.0 0.5172 0.0
0.9971 0.5172 0.0002
0.9883 0.5172 0.001
0.9737 0.5172 0.0022
0.9536 0.5172 0.0038
0.9282 0.5172 0.0057
0.8977 0.5172 0.0079
0.8625 0.5172 0.0103
0.8231 0.5172 0.0128
0.7799 0.5172 0.0153
0.7334 0.5172 0.0178
0.6841 0.5172 0.0201
0.6327 0.5172 0.0222
0.5797 0.5172 0.024
0.5258 0.5172 0.0254
0.4716 0.5172 0.0263
0.4178 0.5172 0.0266
0.3649 0.5172 0.0263
0.3136 0.5172 0.0252
0.2645 0.5172 0.0232
0.2182 0.5172 0.0204
0.1752 0.5172 0.0167
0.136 0.5172 0.0121
0.1011 0.5172 0.0068
0.0709 0.5172 0.0008
0.0458 0.5172 -0.0059
0.026 0.5172 -0.013
0.0118 0.5172 -0.0205
0.0033 0.5172 -0.0282
0.0007 0.5172 -0.0362
0.0039 0.5172 -0.0439
0.0129 0.5172 -0.051
0.0276 0.5172 -0.0575
0.0479 0.5172 -0.0631
0.0734 0.5172 -0.0679
0.104 0.5172 -0.0717
0.1391 0.5172 -0.0745
0.1785 0.5172 -0.0763
0.2217 0.5172 -0.0768
0.2681 0.5172 -0.0763
0.3172 0.5172 -0.0747
0.3684 0.5172 -0.0721
0.4212 0.5172 -0.0687
0.4749 0.5172 -0.0645
0.5289 0.5172 -0.0596
0.5826 0.5172 -0.0543
0.6353 0.5172 -0.0487
0.6864 0.5172 -0.0429
0.7354 0.5172 -0.037
0.7816 0.5172 -0.0312
0.8245 0.5172 -0.0255
0.8636 0.5172 -0.0202
0.8985 0.5172 -0.0153
0.9288 0.5172 -0.0109
0.954 0.5172 -0.0071
0.974 0.5172 -0.0041
0.9884 0.5172 -0.0018
0.9971 0.5172 -0.0005
1.0 0.5172 0.0
1.0 0.6207 0.0
0.9971 0.6207 0.0002
0.9883 0.6207 0.001
0.9737 0.6207 0.0021
0.9536 0.6207 0.0037
0.9282 0.6207 0.0056
0.8977 0.6207 0.0077
0.8625 0.6207 0.0101
0.8231 0.6207 0.0125
0.7799 0.6207 0.015
0.7334 0.6207 0.0174
0.6841 0.6207 0.0197
0.6327 0.6207 0.0217
0.5797 0.6207 0.0234
0.5258 0.6207 0.0248
0.4716 0.6207 0.0256
0.4177 0.6207 0.0258
0.3648 0.6207 0.0254
0.3135 0.6207 0.0242
0.2644 0.6207 0.0222
0.2181 0.6207 0.0193
0.1751 0.6207 0.0155
0.136 0.6207 0.0109
0.1011 0.6207 0.0056
0.0709 0.6207 -0.0005
0.0458 0.6207 -0.0072
0.026 0.6207 -0.0143
0.0118 0.6207 -0.0218
0.0033 0.6207 -0.0296
0.0007 0.6207 -0.0375
0.0039 0.6207 -0.0453
0.013 0.6207 -0.0524
0.0277 0.6207 -0.0588
0.048 0.6207 -0.0644
0.0735 0.6207 -0.0692
0.1041 0.6207 -0.073
0.1392 0.6207 -0.0757
0.1786 0.6207 -0.0774
0.2218 0.6207 -0.0779
0.2682 0.6207 -0.0773
0.3173 0.6207 -0.0756
0.3685 0.6207 -0.073
0.4213 0.6207 -0.0695
0.475 0.6207 -0.0652
0.529 0.6207 -0.0603
0.5827 0.6207 -0.0549
0.6354 0.6207 -0.0492
0.6865 0.6207 -0.0433
0.7354 0.6207 -0.0373
0.7816 0.6207 -0.0315
0.8245 0.6207 -0.0258
0.8637 0.6207 -0.0204
0.8986 0.6207 -0.0154
0.9288 0.6207 -0.011
0.954 0.6207 -0.0072
0.974 0.6207 -0.0041
0.9884 0.6207 -0.0018
0.9971 0.6207 -0.0005
1.0 0.6207 0.0
1.0 0.7241 0.0
0.9971 0.7241 0.0002
0.9883 0.7241 0.001
0.9737 0.7241 0.0021
0.9536 0.7241 0.0036
0.9282 0.7241 0.0055
0.8977 0.7241 0.0076
0.8625 0.7241 0.0099
0.8231 0.7241 0.0123
0.7799 0.7241 0.0148
0.7333 0.7241 0.0171
0.6841 0.7241 0.0193
0.6327 0.7241 0.0213
0.5797 0.7241 0.023
0.5258 0.7241 0.0243
0.4716 0.7241 0.025
0.4177 0.7241 0.0252
0.3648 0.7241 0.0247
0.3135 0.7241 0.0235
0.2644 0.7241 0.0214
0.2181 0.7241 0.0185
0.1751 0.7241 0.0147
0.136 0.7241 0.01
0.1011 0.7241 0.0046
0.0709 0.7241 -0.0015
0.0458 0.7241 -0.0082
0.026 0.7241 -0.0153
0.0118 0.7241 -0.0229
0.0034 0.7241 -0.0306
0.0007 0.7241 -0.0386
0.004 0.7241 -0.0463
0.013 0.7241 -0.0534
0.0278 0.7241 -0.0598
0.048 0.7241 -0.0654
0.0736 0.7241 -0.0702
0.1041 0.7241 -0.0739
0.1393 0.7241 -0.0766
0.1787 0.7241 -0.0782
0.2219 0.7241 -0.0787
0.2683 0.7241 -0.0781
0.3174 0.7241 -0.0764
0.3686 0.7241 -0.0737
[...]
POINT_DATA 2010
SCALARS cp1 float
LOOKUP_TABLE default
0.42022
0.333354
0.224074
0.160658
0.101815
0.0485803
0.00146904
-0.0399468
-0.0823352
-0.122022
-0.163011
-0.206436
-0.249674
-0.29294
-0.339368
-0.391921
-0.446954
-0.505358
-0.568345
-0.634769
-0.708321
-0.791772
-0.886001
-1.00395
-1.15715
-1.36579
-1.71408
-2.51915
-3.53735
-1.49918
1.29791
1.30074
0.810894
0.536811
0.351335
0.22213
0.12835
0.0625484
0.0192141
-0.00867858
-0.0256404
-0.0346803
-0.036596
-0.033062
-0.0270642
-0.0195004
-0.0112429
-0.000405576
0.0141591
0.0295289
0.0448183
0.0649481
0.0886655
0.116921
0.15189
0.189206
0.238404
0.339469
0.416903
0.420101
0.343115
0.237367
0.164553
0.103029
0.0486891
0.000988608
-0.0412736
-0.083511
-0.124721
-0.166044
-0.209247
-0.252848
-0.29759
-0.346296
-0.399407
-0.456651
-0.518251
-0.583691
-0.655233
-0.735756
-0.827442
-0.933497
-1.06277
-1.22868
-1.459
-1.8147
-2.31954
-2.17709
-0.206363
1.49781
1.13772
0.734124
0.487032
0.320152
0.204654
0.121129
0.0616151
0.0205916
-0.00557895
-0.021917
-0.0313567
-0.0334199
-0.0310714
-0.0259218
-0.0179231
-0.00913808
0.00181023
0.0155972
0.0305296
0.0470135
0.0672969
0.0915445
0.120206
0.156392
0.200068
0.259939
0.358475
0.428383
0.41612
0.334169
0.22767
0.157351
0.0975906
0.0452084
-0.00121354
-0.0438021
-0.0859026
-0.127323
-0.168186
-0.211164
-0.254843
-0.300034
-0.349947
-0.40295
-0.460756
-0.523911
-0.589989
-0.662151
-0.743941
-0.837317
-0.942444
-1.06497
-1.21892
-1.4269
-1.73681
-2.22698
-2.36638
-0.59937
1.38434
1.145
0.699554
0.448322
0.288941
0.182459
0.106466
0.0530355
0.0150239
-0.00918758
-0.0235067
-0.0318913
-0.0331549
-0.0311339
-0.0266439
-0.018001
-0.00860087
0.00240054
0.0157493
0.0302581
0.0470909
0.0671695
0.0910783
0.118614
0.15501
0.20062
0.260682
0.362013
0.439332
0.411775
0.33118
0.226244
0.156523
0.0965799
0.0457693
-0.000909498
-0.0444575
-0.0866459
-0.128036
-0.168349
-0.211299
-0.255454
-0.301175
-0.351115
-0.403475
-0.460616
-0.524125
-0.589906
-0.659972
-0.740728
-0.831894
-0.930633
-1.04726
-1.19918
-1.40027
-1.70417
-2.20629
-2.3519
-0.376002
1.44703
1.12107
0.685307
0.438507
0.28067
0.172239
0.0967427
0.0459468
0.00940928
-0.01475
-0.0272794
-0.0340069
-0.0348268
-0.0324415
-0.0281922
-0.0194723
-0.0090184
0.00220678
0.0150697
0.0294507
0.0470835
0.0671582
0.0901562
0.117495
0.154175
0.200788
0.259944
0.358698
0.435643
0.424362
0.34204
0.23192
0.159039
0.0989225
0.0471
-0.000551377
-0.0443577
-0.0866283
-0.127942
-0.168469
-0.211363
-0.255425
-0.301266
-0.350899
-0.402711
-0.459147
-0.522925
-0.588462
-0.657123
-0.737331
-0.825789
-0.920796
-1.03815
-1.19046
-1.38404
-1.67721
-2.1732
-2.29846
-0.315507
1.45234
1.10758
0.673985
0.427994
0.272763
0.165293
0.0900607
0.0396403
0.00452751
-0.0187971
-0.0304204
-0.0364949
-0.0377747
-0.0346074
-0.0292001
-0.0204356
-0.00989043
0.00138869
0.0138847
0.0281121
0.0465084
0.0666101
0.0883398
0.116471
0.152067
0.19593
0.252018
0.343158
0.41333
0.444225
0.35921
0.239139
0.160792
0.100549
0.0479497
0.000825249
-0.0436882
-0.0860605
-0.127378
-0.168766
-0.211398
-0.25447
-0.30017
-0.350227
-0.401525
-0.456721
-0.520051
-0.585943
-0.654835
-0.73334
-0.818309
-0.912188
-1.03172
-1.1808
-1.36904
-1.65736
-2.14006
-2.25361
-0.259112
1.44947
1.09592
0.664367
0.419924
0.264907
0.15893
0.0854416
0.0336857
-0.000326513
-0.0219168
-0.033375
-0.0392308
-0.0409903
-0.0372637
-0.0301222
-0.0211796
-0.0114582
0.000140058
0.0131094
0.0269746
0.045183
0.0653197
0.0868407
0.114747
0.148697
0.191799
0.247439
0.333875
0.398344
0.448764
0.363565
0.23952
0.161035
0.101931
0.0483901
0.00202365
-0.0423047
-0.0851305
-0.127104
-0.168497
-0.210387
-0.252999
-0.298899
-0.349447
-0.400141
-0.454419
-0.516457
-0.582512
-0.652226
-0.729197
-0.811807
-0.904835
-1.02402
-1.16825
-1.35541
-1.64375
-2.10882
-2.20512
-0.234374
1.45119
1.08435
0.655833
0.412846
0.256872
0.152238
0.080881
0.0293625
-0.00432876
-0.0252899
-0.0368301
-0.0425045
-0.0434077
-0.0390984
-0.0318058
-0.0228022
-0.0132942
-0.000971515
0.0126821
0.0259233
0.0435796
0.0639993
0.0863417
0.113833
0.147085
0.190741
0.246083
0.333065
0.400239
0.444844
0.361583
0.238885
0.161132
0.103188
0.0485857
0.00174777
-0.0408271
-0.084071
-0.12686
-0.167483
-0.208918
-0.2516
-0.297513
-0.347725
-0.398268
-0.452783
-0.513191
-0.578234
-0.647849
-0.72407
-0.806827
-0.898571
-1.01502
-1.15729
-1.34469
-1.62884
-2.07941
-2.17212
-0.194912
1.4536
1.07671
0.647435
0.405914
0.249558
0.146753
0.0761531
0.0258752
-0.00769513
-0.0291172
-0.0409469
-0.0461737
-0.0451626
-0.0400975
-0.0336558
-0.0249613
-0.0151455
-0.00231059
0.0116944
0.0247456
0.0425411
0.0632916
0.0858789
0.113639
0.147325
0.190642
0.243276
0.331883
0.404745
0.441793
0.362513
0.242851
0.16144
0.102152
0.0485031
0.00153911
-0.0401032
-0.0832239
-0.125368
-0.165764
-0.207984
-0.250344
-0.295516
-0.344987
-0.396235
-0.451361
-0.510314
-0.574133
-0.642558
-0.717749
-0.80191
-0.893867
-1.00719
-1.14811
-1.33298
-1.60729
-2.05379
-2.13722
-0.166273
1.44999
1.06667
0.640176
0.398211
0.244269
0.141991
0.0710568
0.0214426
-0.0114911
-0.0324532
-0.0445085
-0.0492613
-0.0469047
-0.0418298
-0.0356785
-0.0267748
-0.0167654
-0.00418392
0.0101726
0.0239582
0.0417672
0.0625496
0.0849846
0.113159
0.146886
0.189488
0.242331
0.332491
0.406793
0.440063
0.362999
0.245015
0.160476
0.100107
0.0494108
0.00309691
-0.0401977
-0.0828029
-0.123001
-0.163847
-0.206573
-0.249197
-0.294045
-0.342157
-0.393685
-0.44902
-0.507458
-0.570256
-0.637206
-0.711834
-0.796514
-0.888664
-0.998838
-1.13833
-1.32013
-1.58789
-2.03174
-2.09855
-0.142697
1.45091
1.05634
0.632728
0.392407
0.238475
0.136808
0.0662282
0.0166772
-0.0161343
-0.0354276
-0.0470275
-0.051533
-0.0491762
-0.0448444
-0.0381991
-0.0282755
-0.0177636
-0.00622344
0.00816148
0.0236709
0.0411071
0.0611464
0.0840105
0.113171
0.146735
0.187522
0.242434
0.33496
0.40776
0.43941
0.361696
0.244293
0.160683
0.100407
0.0509338
0.0045824
-0.0404062
-0.0819089
-0.121492
-0.162863
-0.204014
-0.247093
-0.292802
-0.339278
-0.390551
-0.445967
-0.50415
-0.565918
-0.632427
-0.707516
-0.790666
-0.880976
-0.989286
-1.12836
-1.30946
-1.57213
-2.00697
-2.06377
-0.101285
1.45521
1.04858
0.623386
0.384617
0.232404
0.130975
0.0615878
0.0124932
-0.0205114
-0.0391325
-0.0495212
-0.0537926
-0.0522112
-0.0475184
-0.0401958
-0.030446
-0.0192658
-0.00783564
0.00604575
0.0229325
0.0405284
0.0601407
0.0830788
0.112647
0.147352
0.187104
0.242179
0.33595
0.407674
0.437908
0.359095
0.243008
0.163071
0.103021
0.0520557
0.00491846
-0.0403148
-0.080258
-0.120228
-0.162133
-0.201624
-0.244548
-0.290643
-0.336398
-0.38739
-0.442704
-0.500179
-0.56133
-0.628087
-0.702472
-0.784061
-0.874065
-0.981209
-1.11848
-1.29914
-1.55947
-1.98075
-2.01685
-0.0800875
1.45545
1.04103
0.615182
0.376656
0.226196
0.125274
0.0562272
0.00872572
-0.0238238
-0.0433091
-0.0529998
-0.0568301
-0.0553555
-0.0494993
-0.0419198
-0.0329753
-0.0212751
-0.00889244
0.00434719
0.0213492
0.0398443
0.0593771
0.082083
0.112015
0.147779
0.187731
0.242079
0.335285
0.406519
0.437687
0.35792
0.242372
0.16436
0.104025
0.05237
0.00569217
-0.0394398
-0.0791733
-0.11841
-0.159889
-0.199937
-0.24252
-0.287653
-0.3331
-0.38357
-0.43915
-0.49646
-0.557439
-0.623365
-0.695486
-0.776524
-0.867471
-0.974478
-1.10871
-1.28497
-1.54446
-1.96021
-1.97597
-0.0480023
1.44988
1.03045
0.607416
0.369778
0.220384
0.119214
0.0500443
0.00378342
-0.0269275
-0.0467907
-0.0572237
-0.0603937
-0.0578605
-0.0517772
-0.0443904
-0.035193
-0.0231985
-0.0100733
0.00282215
0.0196348
0.0388643
0.0580467
0.0817451
0.11173
0.146505
0.187971
0.243015
0.335112
0.40635
0.438441
0.358356
0.242829
0.164653
0.103456
0.0515409
0.00653032
-0.0371356
-0.0783213
-0.117041
-0.156638
-0.198013
-0.240257
-0.284363
-0.330197
-0.379242
-0.434617
-0.492775
-0.553217
-0.6184
-0.689592
-0.768957
-0.858558
-0.965881
-1.09904
-1.26818
-1.5242
-1.94104
-1.94158
-0.00621794
1.44642
1.02015
0.597435
0.361937
0.213062
0.113985
0.0445463
-0.00200696
-0.0312243
-0.0502876
-0.0610051
-0.063661
-0.0606509
-0.0547642
-0.0471528
-0.0371529
-0.0252177
-0.0119483
0.00152556
0.0180934
0.0371698
0.0568692
0.0818446
0.110608
0.143828
0.188621
0.245315
0.33583
0.406948
0.43866
0.35858
0.242876
0.1642
0.103129
0.0517871
0.00747292
-0.0345243
-0.0765479
-0.116044
-0.154007
-0.195432
-0.237166
-0.281081
-0.327887
-0.375099
-0.42885
-0.487529
-0.548085
-0.613728
-0.684965
-0.761741
-0.849035
-0.955204
-1.0866
-1.25161
-1.50423
-1.91322
-1.89774
0.0311157
1.44971
1.0082
0.586905
0.352727
0.204833
0.107668
0.0393234
-0.00719368
-0.0361318
-0.0545981
-0.0644741
-0.0669966
-0.0645882
-0.0580805
-0.0495114
-0.0389634
-0.0271912
-0.0143923
-0.000252688
0.0163175
0.0355488
0.0559078
0.0811221
0.109834
0.143112
0.189232
0.24632
0.335936
0.407003
0.438427
0.358338
0.241798
0.163255
0.104216
0.0539152
0.00906899
-0.0330485
-0.0749375
-0.11441
-0.151779
-0.192646
-0.233656
-0.277043
-0.324439
-0.371527
-0.423618
-0.481318
-0.542709
-0.60825
-0.67787
-0.753553
-0.840685
-0.944587
-1.0702
-1.23608
-1.48745
-1.88073
-1.85012
0.0664993
1.45407
0.995952
0.575375
0.344892
0.196868
0.0995304
0.0327645
-0.0124182
-0.0408547
-0.0594281
-0.0689614
-0.0708088
-0.0683443
-0.0609961
-0.0518461
-0.041748
-0.0295388
-0.0163955
-0.0023589
0.0142881
0.0344477
0.0551499
0.0793501
0.108751
0.143847
0.189882
0.246239
0.335797
0.406461
0.438348
0.358188
0.240595
0.163124
0.106443
0.0557215
0.0104138
-0.0318082
-0.0736207
-0.112199
-0.149222
-0.189486
-0.229891
-0.272405
-0.319855
-0.367829
-0.41885
-0.475403
-0.536753
-0.600864
-0.669215
-0.744784
-0.831207
-0.933003
-1.05524
-1.22095
-1.46653
-1.84254
-1.80176
0.0990612
1.45128
0.981388
0.564422
0.335802
0.188578
0.0906597
0.0257157
-0.0184066
-0.0463519
-0.0645541
-0.0738423
-0.0745656
-0.0716007
-0.0643235
-0.05535
-0.0453174
-0.0321242
-0.0181412
-0.00402419
0.0122282
0.0328669
0.0544998
0.0775436
0.10716
0.144135
0.189436
0.246004
0.336972
0.406574
0.439068
0.358528
0.24012
0.162943
0.107306
0.0570203
0.0120683
-0.0302006
-0.0714808
-0.109561
-0.146829
-0.185991
-0.225641
-0.267846
-0.314824
-0.362979
-0.413398
-0.469217
-0.529374
-0.592473
-0.661049
-0.735772
-0.820068
-0.919958
-1.04177
-1.20551
-1.4391
-1.79969
-1.74337
0.127903
1.44711
0.967547
0.552347
0.324715
0.179036
0.0823136
0.0182551
-0.0253767
-0.0529153
-0.0699423
-0.0780946
-0.0786211
-0.0756055
-0.0683875
-0.0596252
-0.0486307
-0.0344332
-0.020457
-0.00571479
0.0101677
0.0305019
0.0534303
0.076651
0.106663
0.143105
0.186487
0.245832
0.339385
0.407737
0.439167
0.357925
0.240302
0.163759
0.10739
0.0580453
0.0139019
-0.0282393
-0.0686965
-0.106569
-0.14387
-0.181878
-0.221388
-0.263588
-0.308773
-0.356944
-0.407587
-0.46215
-0.520944
-0.583551
-0.651566
-0.725231
-0.808896
-0.907193
-1.0254
-1.18435
-1.4139
-1.76321
-1.67936
0.186372
1.44356
0.952847
0.538801
0.312426
0.168837
0.0737575
0.00928804
-0.0331694
-0.0594487
-0.0755684
-0.0828375
-0.0836879
-0.0802408
-0.0723245
-0.0636762
-0.0519317
-0.0371317
-0.0232976
-0.00807736
0.00805542
0.0283729
0.0521742
0.0759158
0.105626
0.140974
0.184648
0.24686
0.340822
0.408
0.437921
0.355728
0.239966
0.166211
0.109069
0.0588066
0.0151684
-0.0259796
-0.0660296
-0.103191
-0.139375
-0.177206
-0.217474
-0.258822
-0.30202
-0.35032
-0.401134
-0.454288
-0.511999
-0.573015
-0.639989
-0.713551
-0.796315
-0.893565
-1.00789
-1.15936
-1.38648
-1.72509
-1.61438
0.225483
1.44017
0.935022
0.522791
0.297969
0.156921
0.0638047
0.000401192
-0.0410717
-0.0663949
-0.0819868
-0.0889169
-0.0892329
-0.084869
-0.0767173
-0.0676633
-0.0553457
-0.0405555
-0.0266644
-0.0112172
0.00610352
0.0267359
0.0503225
0.0743706
0.103797
0.139808
0.185249
0.247696
0.340338
0.407
0.437236
0.354111
0.238653
0.167298
0.111413
0.0601058
0.0160118
-0.0235928
-0.0626621
-0.0993355
-0.134404
-0.172479
-0.212576
-0.252592
-0.295168
-0.343369
-0.393257
-0.444959
-0.501855
-0.561754
-0.627679
-0.700746
-0.781146
-0.876379
-0.989762
-1.13433
-1.35074
-1.67851
-1.5504
0.280372
1.43722
0.915869
0.50399
0.282419
0.143555
0.0532968
-0.00846404
-0.049761
-0.0744692
-0.0895561
-0.0959429
-0.0947766
-0.0898556
-0.0819164
-0.0715074
-0.0591635
-0.0449425
-0.0300976
-0.0144725
0.00385262
0.0250823
0.0478376
0.0720525
0.102015
0.13913
0.186277
0.248294
0.340039
0.407055
0.437838
0.354091
0.237831
0.166378
0.111828
0.0616831
0.0180314
-0.0205442
-0.0586381
-0.0953562
-0.129995
-0.167212
-0.206023
-0.245139
-0.287817
-0.334872
-0.383642
-0.434238
-0.490048
-0.550266
-0.614913
-0.685813
-0.763659
-0.855238
-0.967524
-1.11015
-1.31586
-1.62486
-1.46508
0.330264
1.42842
0.892432
0.483428
0.266841
0.130922
0.040847
-0.019807
-0.0594164
-0.0828581
-0.0978786
-0.103517
-0.100775
-0.0954851
-0.0869934
-0.0754963
-0.0638448
-0.0498805
-0.0335094
-0.017612
0.000480876
0.0222303
0.0453959
0.0703733
0.100153
0.137664
0.18625
0.247202
0.339839
0.410104
0.436771
0.354458
0.239207
0.166026
0.111438
0.0635268
0.0210932
-0.0174838
-0.0547218
-0.0910325
-0.125531
-0.161012
-0.198102
-0.236813
-0.278899
-0.32438
-0.372098
-0.421781
-0.477199
-0.53734
-0.600202
-0.66833
-0.743704
-0.832246
-0.942193
-1.08338
-1.27782
-1.56072
-1.3834
0.391631
1.42337
0.866232
0.4601
0.248137
0.116259
0.0266348
-0.0326094
-0.0700103
-0.0923207
-0.106623
-0.110985
-0.107425
-0.10181
-0.092191
-0.0806148
-0.0692378
-0.0545977
-0.0373591
-0.0207522
-0.00337036
0.0173843
0.0420227
0.0694418
0.0993692
0.136669
0.183668
0.242116
0.338979
0.414479
0.432231
0.353454
0.242201
0.167943
0.111744
0.0645444
0.0233792
-0.0142336
-0.0498657
-0.0852124
-0.120072
-0.154014
-0.189612
-0.227606
-0.267895
-0.3119
-0.358668
-0.407355
-0.462254
-0.521453
-0.581872
-0.647719
-0.722331
-0.808212
-0.913343
-1.04925
-1.23149
-1.49336
-1.28725
0.448174
1.41146
0.838369
0.435531
0.225694
0.09827
0.0112704
-0.0456289
-0.0814044
-0.103553
-0.115997
-0.118199
-0.114592
-0.108897
-0.0983616
-0.0867705
-0.0745896
-0.0590594
-0.041969
-0.0247372
-0.00725525
0.0125712
0.0377553
0.066818
0.0972369
0.134746
0.180243
0.238497
0.339139
0.416141
0.427302
0.350179
0.242479
0.169493
0.112497
0.0655803
0.0253986
-0.0108455
-0.0444476
-0.0784099
-0.113014
-0.145828
-0.180179
-0.216865
-0.254587
-0.297139
-0.343345
-0.390791
-0.44367
-0.50137
-0.559657
-0.624181
-0.698436
-0.780302
-0.879706
-1.00857
-1.17878
-1.42329
-1.18787
0.525035
1.39896
0.80258
0.405411
0.200917
0.0771791
-0.00659053
-0.0603783
-0.0935041
-0.115193
-0.125588
-0.126399
-0.122843
-0.116218
-0.104895
-0.0927479
-0.0797765
-0.0640991
-0.0473803
-0.0300787
-0.0121296
0.00804147
0.0330053
0.0614438
0.0923163
0.131639
0.178675
0.238373
0.339124
0.414483
0.424418
0.346257
0.238812
0.167331
0.112266
0.0676069
0.0282711
-0.00784743
-0.039606
-0.0710068
-0.104224
-0.135803
-0.168335
-0.203179
-0.239237
-0.280093
-0.324871
-0.370612
-0.420647
-0.476307
-0.533438
-0.596534
-0.669129
-0.747106
-0.840698
-0.962011
-1.11949
-1.34253
-1.06932
0.603826
1.37986
0.761322
0.372791
0.17325
0.0525553
-0.0276847
-0.0777113
-0.107656
-0.12714
-0.135102
-0.135566
-0.131496
-0.123078
-0.110884
-0.0985937
-0.0857298
-0.0699265
-0.0534695
-0.0367789
-0.0189258
0.00157655
0.025932
0.0544636
0.0877062
0.128279
0.175535
0.237224
0.338158
0.412364
0.421333
0.34102
0.233219
0.163431
0.110441
0.0685705
0.0313702
-0.00401365
-0.0339899
-0.0623811
-0.0933592
-0.1233
-0.153728
-0.186369
-0.220883
-0.259283
-0.301078
-0.344991
-0.392421
-0.445273
-0.501125
-0.561792
-0.631477
-0.706128
-0.793006
-0.906949
-1.0541
-1.24528
-0.923129
0.6938
1.35255
0.711511
0.332924
0.139687
0.0232465
-0.0510453
-0.0961151
-0.124033
-0.140044
-0.144796
-0.144097
-0.138824
-0.128926
-0.116554
-0.104825
-0.0922047
-0.0766777
-0.0608995
-0.0453256
-0.0276674
-0.00699971
0.0162292
0.0452624
0.0808178
0.120877
0.168658
0.234579
0.337147
0.410701
0.420952
0.33288
0.226985
0.16028
0.109639
0.0693961
0.0347408
0.00205488
-0.0251772
-0.0513084
-0.080021
-0.107865
-0.136377
-0.166196
-0.197637
-0.232768
-0.271283
-0.312378
-0.356466
-0.405395
-0.458128
-0.51568
-0.582494
-0.654119
-0.734706
-0.840845
-0.974479
-1.13081
-0.75917
0.780834
1.31458
0.64755
0.281394
0.0964087
-0.0117884
-0.0782086
-0.117225
-0.14111
-0.152223
-0.153427
-0.150649
-0.144088
-0.133488
-0.121686
-0.110635
-0.0983828
-0.0844841
-0.0701632
-0.0560343
-0.0398029
-0.0198883
0.00191673
0.0298906
0.0659735
0.109602
0.164046
0.234896
0.340582
0.419387
0.309763
0.248899
0.175269
0.127657
0.0872299
0.0523534
0.0220774
-0.00582676
-0.028582
-0.0506407
-0.0751446
-0.0984363
-0.122323
-0.146913
-0.172798
-0.20282
-0.235717
-0.27006
-0.306702
-0.347914
-0.392595
-0.441835
-0.499576
-0.562523
-0.634989
-0.727656
-0.837048
-0.918727
-0.488601
0.83241
1.18878
0.563568
0.209661
0.0371273
-0.0552602
-0.108351
-0.137615
-0.153995
-0.160256
-0.159561
-0.155618
-0.14886
-0.139106
-0.128907
-0.119504
-0.109211
-0.0986984
-0.0881282
-0.0784144
-0.0686248
-0.0560895
-0.0422072
-0.0257369
-0.00315885
0.0304516
0.078883
0.154126
0.27638
0.366933
0.111568
0.089438
0.0690822
0.0633919
0.040416
0.0157692
-0.00708931
-0.0293614
-0.0451458
-0.0601367
-0.0791373
-0.095591
-0.112423
-0.129633
-0.147842
-0.171446
-0.196956
-0.221699
-0.247738
-0.278328
-0.310999
-0.346285
-0.389111
-0.435048
-0.492712
-0.571107
-0.679851
-0.861152
-0.450078
1.09941
1.3109
0.35377
0.0304672
-0.0761491
-0.124366
-0.150128
-0.162025
-0.167704
-0.168683
-0.166085
-0.161435
-0.155169
-0.14641
-0.138024
-0.131622
-0.124295
-0.117766
-0.112513
-0.109698
-0.110127
-0.109253
-0.109186
-0.113721
-0.118725
-0.114296
-0.0951315
-0.0330186
0.128436
0.254456
-28.1635
-17.3917
-4.24219
-2.33331
-1.34735
-0.815478
-0.542583
-0.396711
-0.300162
-0.248537
-0.21864
-0.199655
-0.191058
-0.186895
-0.191405
-0.203156
-0.217219
-0.233115
-0.250977
-0.273487
-0.298883
-0.324343
-0.352757
-0.383256
-0.416608
-0.461374
-0.521545
-0.662219
-0.231764
0.472281
-26.0816
-15.3833
-5.15836
-2.66756
-1.62579
-1.08287
-0.778241
-0.59382
-0.472094
-0.395995
-0.343673
-0.306245
-0.280398
-0.26364
-0.256279
-0.25523
-0.257818
-0.263252
-0.271772
-0.284213
-0.298359
-0.313238
-0.330993
-0.350945
-0.3728
-0.402564
-0.438927
-0.481261
-0.144008
0.530326
-22.1706
-13.3336
-4.81891
-2.74161
-1.79614
-1.27603
-0.951883
-0.738158
-0.595238
-0.5002
-0.431592
-0.379786
-0.343528
-0.318211
-0.302752
-0.293349
-0.287838
-0.28604
-0.287923
-0.292977