# vtk DataFile Version 2.0
scalar
ASCII
DATASET UNSTRUCTURED_GRID
POINTS 2010 float
1.0 0.0 0.0
0.9971 0.0 0.0004
0.9883 0.0 0.0014
0.9738 0.0 0.0031
0.9538 0.0 0.0054
0.9284 0.0 0.0083
0.898 0.0 0.0116
0.863 0.0 0.0152
0.8237 0.0 0.0192
0.7806 0.0 0.0232
0.7342 0.0 0.0274
0.6851 0.0 0.0315
0.6338 0.0 0.0355
0.5809 0.0 0.0392
0.5271 0.0 0.0425
0.4729 0.0 0.0454
0.4191 0.0 0.0477
0.3662 0.0 0.0492
0.3149 0.0 0.05
0.2658 0.0 0.0498
0.2194 0.0 0.0486
0.1763 0.0 0.0465
0.137 0.0 0.0434
0.102 0.0 0.0393
0.0716 0.0 0.0344
0.0462 0.0 0.0286
0.0262 0.0 0.0222
0.0117 0.0 0.0153
0.0029 0.0 0.0079
0.0 0.0 0.0
0.0029 0.0 -0.0079
0.0117 0.0 -0.0153
0.0262 0.0 -0.0222
0.0462 0.0 -0.0286
0.0716 0.0 -0.0344
0.102 0.0 -0.0393
0.137 0.0 -0.0434
0.1763 0.0 -0.0465
0.2194 0.0 -0.0486
0.2658 0.0 -0.0498
0.3149 0.0 -0.05
0.3662 0.0 -0.0492
0.4191 0.0 -0.0477
0.4729 0.0 -0.0454
0.5271 0.0 -0.0425
0.5809 0.0 -0.0392
0.6338 0.0 -0.0355
0.6851 0.0 -0.0315
0.7342 0.0 -0.0274
0.7806 0.0 -0.0232
0.8237 0.0 -0.0192
0.863 0.0 -0.0152
0.898 0.0 -0.0116
0.9284 0.0 -0.0083
0.9538 0.0 -0.0054
0.9738 0.0 -0.0031
0.9883 0.0 -0.0014
0.9971 0.0 -0.0004
1.0 0.0 0.0
1.0 0.1034 0.0
0.9971 0.1034 0.0003
0.9883 0.1034 0.0011
0.9737 0.1034 0.0023
0.9536 0.1034 0.004
0.9282 0.1034 0.0061
0.8977 0.1034 0.0085
0.8626 0.1034 0.0111
0.8232 0.1034 0.0138
0.78 0.1034 0.0166
0.7335 0.1034 0.0193
0.6843 0.1034 0.022
0.6329 0.1034 0.0244
0.5799 0.1034 0.0265
0.526 0.1034 0.0282
0.4718 0.1034 0.0295
0.4179 0.1034 0.0301
0.365 0.1034 0.0301
0.3137 0.1034 0.0292
0.2646 0.1034 0.0276
0.2183 0.1034 0.025
0.1753 0.1034 0.0216
0.1361 0.1034 0.0173
0.1012 0.1034 0.0121
0.071 0.1034 0.0063
0.0458 0.1034 -0.0002
0.0259 0.1034 -0.0072
0.0117 0.1034 -0.0146
0.0031 0.1034 -0.0223
0.0005 0.1034 -0.0302
0.0036 0.1034 -0.038
0.0126 0.1034 -0.0452
0.0273 0.1034 -0.0517
0.0475 0.1034 -0.0575
0.073 0.1034 -0.0624
0.1036 0.1034 -0.0664
0.1387 0.1034 -0.0694
0.1781 0.1034 -0.0714
0.2212 0.1034 -0.0722
0.2676 0.1034 -0.072
0.3168 0.1034 -0.0706
0.368 0.1034 -0.0684
0.4208 0.1034 -0.0652
0.4745 0.1034 -0.0613
0.5286 0.1034 -0.0568
0.5823 0.1034 -0.0518
0.635 0.1034 -0.0465
0.6862 0.1034 -0.041
0.7352 0.1034 -0.0354
0.7814 0.1034 -0.0299
0.8244 0.1034 -0.0245
0.8635 0.1034 -0.0194
0.8984 0.1034 -0.0147
0.9287 0.1034 -0.0104
0.954 0.1034 -0.0068
0.9739 0.1034 -0.0039
0.9884 0.1034 -0.0018
0.9971 0.1034 -0.0004
1.0 0.1034 0.0
1.0 0.2069 0.0
0.9971 0.2069 0.0002
0.9883 0.2069 0.001
0.9737 0.2069 0.0021
0.9536 0.2069 0.0036
0.9282 0.2069 0.0055
0.8977 0.2069 0.0076
0.8625 0.2069 0.0099
0.8231 0.2069 0.0123
0.7799 0.2069 0.0147
0.7333 0.2069 0.0171
0.6841 0.2069 0.0193
0.6327 0.2069 0.0212
0.5797 0.2069 0.0229
0.5258 0.2069 0.0242
0.4716 0.2069 0.0249
0.4177 0.2069 0.0251
0.3648 0.2069 0.0246
0.3135 0.2069 0.0234
0.2644 0.2069 0.0213
0.2181 0.2069 0.0183
0.1751 0.2069 0.0145
0.136 0.2069 0.0099
0.1011 0.2069 0.0044
0.0709 0.2069 -0.0017
0.0458 0.2069 -0.0084
0.026 0.2069 -0.0155
0.0118 0.2069 -0.0231
0.0034 0.2069 -0.0308
0.0008 0.2069 -0.0388
0.004 0.2069 -0.0465
0.013 0.2069 -0.0536
0.0278 0.2069 -0.06
0.048 0.2069 -0.0656
0.0736 0.2069 -0.0703
0.1042 0.2069 -0.0741
0.1393 0.2069 -0.0768
0.1787 0.2069 -0.0784
0.2219 0.2069 -0.0789
0.2683 0.2069 -0.0782
0.3174 0.2069 -0.0765
0.3686 0.2069 -0.0738
0.4214 0.2069 -0.0702
0.4751 0.2069 -0.0658
0.5291 0.2069 -0.0609
0.5827 0.2069 -0.0554
0.6354 0.2069 -0.0496
0.6865 0.2069 -0.0437
0.7355 0.2069 -0.0377
0.7817 0.2069 -0.0317
0.8246 0.2069 -0.026
0.8637 0.2069 -0.0205
0.8986 0.2069 -0.0155
0.9288 0.2069 -0.0111
0.954 0.2069 -0.0072
0.974 0.2069 -0.0041
0.9884 0.2069 -0.0019
0.9971 0.2069 -0.0005
1.0 0.2069 0.0
1.0 0.3103 0.0
0.9971 0.3103 0.0002
0.9883 0.3103 0.0009
0.9737 0.3103 0.002
0.9536 0.3103 0.0034
0.9281 0.3103 0.0051
0.8976 0.3103 0.0071
0.8625 0.3103 0.0092
0.823 0.3103 0.0114
0.7798 0.3103 0.0136
0.7333 0.3103 0.0157
0.684 0.3103 0.0176
0.6326 0.3103 0.0193
0.5796 0.3103 0.0207
0.5257 0.3103 0.0217
0.4714 0.3103 0.0222
0.4176 0.3103 0.0221
0.3647 0.3103 0.0213
0.3134 0.3103 0.0198
0.2643 0.3103 0.0174
0.218 0.3103 0.0143
0.1751 0.3103 0.0102
0.1359 0.3103 0.0054
0.1011 0.3103 -0.0002
0.071 0.3103 -0.0065
0.0459 0.3103 -0.0133
0.0261 0.3103 -0.0206
0.012 0.3103 -0.0282
0.0036 0.3103 -0.036
0.001 0.3103 -0.044
0.0042 0.3103 -0.0517
0.0133 0.3103 -0.0587
0.0281 0.3103 -0.0651
0.0484 0.3103 -0.0706
0.074 0.3103 -0.0752
0.1046 0.3103 -0.0788
0.1397 0.3103 -0.0813
0.1791 0.3103 -0.0827
0.2223 0.3103 -0.0829
0.2687 0.3103 -0.082
0.3178 0.3103 -0.08
0.369 0.3103 -0.0771
0.4218 0.3103 -0.0732
0.4754 0.3103 -0.0686
0.5294 0.3103 -0.0633
0.583 0.3103 -0.0576
0.6357 0.3103 -0.0515
0.6868 0.3103 -0.0453
0.7357 0.3103 -0.0391
0.7818 0.3103 -0.0329
0.8247 0.3103 -0.0269
0.8638 0.3103 -0.0213
0.8987 0.3103 -0.0161
0.9289 0.3103 -0.0114
0.9541 0.3103 -0.0075
0.974 0.3103 -0.0043
0.9884 0.3103 -0.0019
0.9971 0.3103 -0.0005
1.0 0.3103 0.0
1.0 0.4138 0.0
0.9971 0.4138 0.0002
0.9883 0.4138 0.0008
0.9737 0.4138 0.0019
0.9536 0.4138 0.0032
0.9281 0.4138 0.0049
0.8976 0.4138 0.0067
0.8624 0.4138 0.0087
0.823 0.4138 0.0108
0.7797 0.4138 0.0128
0.7332 0.4138 0.0147
0.6839 0.4138 0.0165
0.6325 0.4138 0.018
0.5795 0.4138 0.0192
0.5256 0.4138 0.02
0.4714 0.4138 0.0203
0.4175 0.4138 0.02
0.3646 0.4138 0.0191
0.3133 0.4138 0.0174
0.2643 0.4138 0.0148
0.218 0.4138 0.0115
0.175 0.4138 0.0073
0.1359 0.4138 0.0023
0.1011 0.4138 -0.0034
0.071 0.4138 -0.0098
0.0459 0.4138 -0.0167
0.0262 0.4138 -0.0241
0.0121 0.4138 -0.0317
0.0037 0.4138 -0.0395
0.0011 0.4138 -0.0475
0.0044 0.4138 -0.0552
0.0135 0.4138 -0.0622
0.0283 0.4138 -0.0685
0.0487 0.4138 -0.0739
0.0743 0.4138 -0.0784
0.1048 0.4138 -0.0819
0.14 0.4138 -0.0843
0.1794 0.4138 -0.0856
0.2226 0.4138 -0.0857
0.269 0.4138 -0.0846
0.3181 0.4138 -0.0825
0.3693 0.4138 -0.0793
0.422 0.4138 -0.0752
0.4757 0.4138 -0.0704
0.5296 0.4138 -0.065
0.5832 0.4138 -0.0591
0.6359 0.4138 -0.0528
0.6869 0.4138 -0.0464
0.7358 0.4138 -0.04
0.7819 0.4138 -0.0336
0.8248 0.4138 -0.0275
0.8639 0.4138 -0.0217
0.8987 0.4138 -0.0164
0.9289 0.4138 -0.0117
0.9541 0.4138 -0.0076
0.974 0.4138 -0.0044
0.9884 0.4138 -0.002
0.9971 0.4138 -0.0005
1.0 0.4138 0.0
1.0 0.5172 0.0
0.9971 0.5172 0.0002
0.9883 0.5172 0.0008
0.9737 0.5172 0.0018
0.9536 0.5172 0.0031
0.9281 0.5172 0.0047
0.8976 0.5172 0.0065
0.8624 0.5172 0.0084
0.823 0.5172 0.0103
0.7797 0.5172 0.0122
0.7332 0.5172 0.014
0.6839 0.5172 0.0157
0.6324 0.5172 0.0171
0.5795 0.5172 0.0182
0.5255 0.5172 0.0188
0.4713 0.5172 0.019
0.4174 0.5172 0.0185
0.3646 0.5172 0.0174
0.3133 0.5172 0.0156
0.2642 0.5172 0.013
0.218 0.5172 0.0095
0.175 0.5172 0.0052
0.1359 0.5172 0.0001
0.1011 0.5172 -0.0057
0.071 0.5172 -0.0122
0.046 0.5172 -0.0192
0.0263 0.5172 -0.0265
0.0122 0.5172 -0.0342
0.0038 0.5172 -0.0421
0.0013 0.5172 -0.0501
0.0046 0.5172 -0.0578
0.0137 0.5172 -0.0648
0.0285 0.5172 -0.071
0.0488 0.5172 -0.0764
0.0745 0.5172 -0.0808
0.105 0.5172 -0.0842
0.1403 0.5172 -0.0865
0.1797 0.5172 -0.0877
0.2228 0.5172 -0.0877
0.2692 0.5172 -0.0865
0.3183 0.5172 -0.0842
0.3695 0.5172 -0.0809
0.4222 0.5172 -0.0767
0.4759 0.5172 -0.0718
0.5298 0.5172 -0.0662
0.5834 0.5172 -0.0601
0.636 0.5172 -0.0538
0.687 0.5172 -0.0472
0.7359 0.5172 -0.0407
0.782 0.5172 -0.0342
0.8249 0.5172 -0.028
0.8639 0.5172 -0.0221
0.8988 0.5172 -0.0167
0.9289 0.5172 -0.0119
0.9541 0.5172 -0.0077
0.974 0.5172 -0.0044
0.9884 0.5172 -0.002
0.9971 0.5172 -0.0005
1.0 0.5172 0.0
1.0 0.6207 0.0
0.9971 0.6207 0.0002
0.9883 0.6207 0.0008
0.9737 0.6207 0.0018
0.9536 0.6207 0.003
0.9281 0.6207 0.0046
0.8976 0.6207 0.0063
0.8624 0.6207 0.0081
0.8229 0.6207 0.01
0.7797 0.6207 0.0118
0.7331 0.6207 0.0135
0.6839 0.6207 0.0151
0.6324 0.6207 0.0164
0.5794 0.6207 0.0174
0.5255 0.6207 0.0179
0.4713 0.6207 0.018
0.4174 0.6207 0.0174
0.3645 0.6207 0.0162
0.3133 0.6207 0.0143
0.2642 0.6207 0.0116
0.2179 0.6207 0.008
0.175 0.6207 0.0036
0.1359 0.6207 -0.0015
0.1011 0.6207 -0.0074
0.071 0.6207 -0.0139
0.046 0.6207 -0.021
0.0263 0.6207 -0.0284
0.0122 0.6207 -0.0361
0.0039 0.6207 -0.044
0.0014 0.6207 -0.052
0.0047 0.6207 -0.0597
0.0138 0.6207 -0.0666
0.0286 0.6207 -0.0728
0.049 0.6207 -0.0782
0.0746 0.6207 -0.0826
0.1052 0.6207 -0.0859
0.1404 0.6207 -0.0882
0.1798 0.6207 -0.0892
0.223 0.6207 -0.0891
0.2694 0.6207 -0.0879
0.3185 0.6207 -0.0855
0.3697 0.6207 -0.0821
0.4224 0.6207 -0.0778
0.476 0.6207 -0.0727
0.5299 0.6207 -0.0671
0.5835 0.6207 -0.0609
0.6361 0.6207 -0.0545
0.6871 0.6207 -0.0478
0.736 0.6207 -0.0412
0.7821 0.6207 -0.0346
0.8249 0.6207 -0.0283
0.864 0.6207 -0.0223
0.8988 0.6207 -0.0169
0.929 0.6207 -0.012
0.9541 0.6207 -0.0078
0.974 0.6207 -0.0045
0.9884 0.6207 -0.002
0.9971 0.6207 -0.0005
1.0 0.6207 0.0
1.0 0.7241 0.0
0.9971 0.7241 0.0002
0.9883 0.7241 0.0008
0.9737 0.7241 0.0017
0.9536 0.7241 0.003
0.9281 0.7241 0.0045
0.8976 0.7241 0.0061
0.8624 0.7241 0.0079
0.8229 0.7241 0.0097
0.7797 0.7241 0.0115
0.7331 0.7241 0.0132
0.6838 0.7241 0.0146
0.6324 0.7241 0.0159
0.5794 0.7241 0.0167
0.5255 0.7241 0.0172
0.4713 0.7241 0.0172
0.4174 0.7241 0.0166
0.3645 0.7241 0.0153
0.3132 0.7241 0.0133
0.2642 0.7241 0.0105
0.2179 0.7241 0.0069
0.175 0.7241 0.0024
0.1359 0.7241 -0.0028
0.1011 0.7241 -0.0087
0.0711 0.7241 -0.0153
0.046 0.7241 -0.0223
0.0264 0.7241 -0.0298
0.0123 0.7241 -0.0375
0.0039 0.7241 -0.0454
0.0014 0.7241 -0.0534
0.0048 0.7241 -0.0611
0.0139 0.7241 -0.0681
0.0288 0.7241 -0.0742
0.0491 0.7241 -0.0795
0.0747 0.7241 -0.0839
0.1053 0.7241 -0.0872
0.1406 0.7241 -0.0894
0.18 0.7241 -0.0904
0.2231 0.7241 -0.0903
0.2695 0.7241 -0.0889
0.3186 0.7241 -0.0865
0.3698 0.7241 -0.083
0.4225 0.7241 -0.0786
[...]
POINT_DATA 2010
SCALARS cp1 float
LOOKUP_TABLE default
0.414933
0.323774
0.212728
0.159359
0.106762
0.0540553
0.00868069
-0.0327892
-0.0732774
-0.109839
-0.148227
-0.190248
-0.231051
-0.271172
-0.314282
-0.363047
-0.413792
-0.465888
-0.523295
-0.584009
-0.646207
-0.720905
-0.805609
-0.902491
-1.03826
-1.23012
-1.54327
-2.31741
-3.28827
-1.33605
1.26182
1.22755
0.753267
0.483708
0.298825
0.17058
0.077818
0.0139241
-0.0263315
-0.0520429
-0.0647423
-0.0693175
-0.0680991
-0.0613586
-0.0529547
-0.0430045
-0.0313577
-0.0181528
-0.00245368
0.0139469
0.0313316
0.0536972
0.0788762
0.109809
0.147849
0.188494
0.240019
0.346481
0.429639
0.427671
0.346189
0.233818
0.164543
0.108385
0.0546547
0.00783621
-0.0340236
-0.0745144
-0.113417
-0.153141
-0.194197
-0.234803
-0.277246
-0.323166
-0.372492
-0.425125
-0.481584
-0.543443
-0.609609
-0.680256
-0.763773
-0.860173
-0.971075
-1.11701
-1.32077
-1.62365
-2.02255
-1.65909
0.242448
1.55641
1.03216
0.634499
0.404951
0.25013
0.142289
0.0651693
0.0110553
-0.0248581
-0.0475385
-0.0598317
-0.0651835
-0.0640536
-0.0583387
-0.0508964
-0.0404033
-0.028262
-0.0158991
-0.0012803
0.0154786
0.0340962
0.0563311
0.0812425
0.111503
0.150368
0.194793
0.253939
0.353817
0.428665
0.441592
0.354145
0.233473
0.160386
0.105163
0.0522478
0.00539808
-0.036416
-0.0769796
-0.116789
-0.156978
-0.196955
-0.236806
-0.280592
-0.328027
-0.377319
-0.43029
-0.488566
-0.552156
-0.61948
-0.691753
-0.775441
-0.871137
-0.977762
-1.10935
-1.28656
-1.53365
-1.90582
-1.85489
-0.206959
1.39678
1.0317
0.58818
0.354255
0.209964
0.113501
0.0465036
-0.000186481
-0.0313021
-0.0500177
-0.0607099
-0.0658042
-0.0639125
-0.0580429
-0.0508867
-0.0397829
-0.0267333
-0.0150742
-0.00156134
0.0156866
0.0346765
0.0562416
0.0803262
0.109149
0.146379
0.189633
0.244086
0.340531
0.41617
0.441863
0.358815
0.238277
0.159708
0.103467
0.0522035
0.00559181
-0.036918
-0.078567
-0.118391
-0.157738
-0.197284
-0.237462
-0.281574
-0.328991
-0.378281
-0.430788
-0.489123
-0.551411
-0.616303
-0.687812
-0.766586
-0.856481
-0.958918
-1.0826
-1.25227
-1.49569
-1.87031
-1.82681
0.0206315
1.46194
0.996919
0.570147
0.339252
0.195923
0.0995314
0.0342616
-0.0105882
-0.0393575
-0.055607
-0.0653116
-0.0690078
-0.0658958
-0.0598771
-0.0522688
-0.0410292
-0.027231
-0.0149604
-0.00202874
0.0156273
0.0348728
0.0555974
0.0798862
0.109058
0.144508
0.186572
0.243011
0.337842
0.408677
0.432052
0.353464
0.238078
0.15973
0.102265
0.0510507
0.00472307
-0.0378991
-0.0795981
-0.118372
-0.1568
-0.197278
-0.238593
-0.282073
-0.328566
-0.377875
-0.429868
-0.487475
-0.549142
-0.61258
-0.682898
-0.759184
-0.845553
-0.946765
-1.06718
-1.22905
-1.46449
-1.82908
-1.77003
0.0906827
1.45682
0.975671
0.554415
0.325596
0.184665
0.0904215
0.0260071
-0.0182908
-0.0461923
-0.0615364
-0.0701176
-0.0717621
-0.067704
-0.0620482
-0.0539257
-0.0425356
-0.0288247
-0.0155112
-0.00217088
0.0152471
0.034418
0.0553134
0.079317
0.108639
0.145409
0.187018
0.244368
0.342154
0.414646
0.428865
0.349664
0.235906
0.159754
0.102136
0.0497707
0.00315986
-0.0387971
-0.079496
-0.117421
-0.155687
-0.196895
-0.239201
-0.282152
-0.327791
-0.377072
-0.427876
-0.483449
-0.545597
-0.60992
-0.67736
-0.751171
-0.836621
-0.936296
-1.05266
-1.20774
-1.44136
-1.79928
-1.70755
0.155406
1.45543
0.957125
0.540617
0.314476
0.174108
0.0822634
0.0186392
-0.024302
-0.0516542
-0.0671525
-0.0743172
-0.0745646
-0.070202
-0.0644501
-0.0554811
-0.0437303
-0.0307898
-0.0166989
-0.00243229
0.0144606
0.0337601
0.0552489
0.0785929
0.107781
0.146939
0.189253
0.245992
0.343916
0.416048
0.428457
0.346927
0.232811
0.158781
0.100999
0.0484137
0.00313562
-0.038142
-0.0788219
-0.117273
-0.155879
-0.196264
-0.238455
-0.281026
-0.326026
-0.375524
-0.425931
-0.480055
-0.541269
-0.606038
-0.671921
-0.743168
-0.828058
-0.926524
-1.04082
-1.1925
-1.42035
-1.76734
-1.65674
0.201463
1.45146
0.943418
0.530482
0.304666
0.164605
0.0736696
0.0115687
-0.0293285
-0.055941
-0.0717486
-0.0783432
-0.0779662
-0.0730946
-0.0664753
-0.0567927
-0.0451782
-0.0330407
-0.0184413
-0.00297461
0.0137595
0.0333943
0.0553245
0.0783029
0.107553
0.146265
0.189904
0.249142
0.346666
0.417052
0.427659
0.344422
0.230617
0.158472
0.0996762
0.0473491
0.00420646
-0.0366795
-0.0776788
-0.117128
-0.156704
-0.19583
-0.236455
-0.279046
-0.324128
-0.373024
-0.423699
-0.477634
-0.536961
-0.600918
-0.666943
-0.736276
-0.818962
-0.91629
-1.02983
-1.17949
-1.397
-1.73598
-1.61895
0.231579
1.4475
0.928418
0.517577
0.297034
0.157283
0.0661887
0.00482235
-0.0347218
-0.0600843
-0.0754276
-0.0823792
-0.0813465
-0.07581
-0.0687461
-0.0585541
-0.047065
-0.0350194
-0.0198714
-0.00361836
0.0129474
0.032846
0.0550077
0.0784674
0.107234
0.14484
0.190793
0.251873
0.348082
0.417018
0.427872
0.3431
0.228751
0.157344
0.0993346
0.0480014
0.00521297
-0.0360933
-0.0770783
-0.115969
-0.156135
-0.195035
-0.234066
-0.27748
-0.322994
-0.370064
-0.420529
-0.474744
-0.532595
-0.595513
-0.661734
-0.730779
-0.81172
-0.907168
-1.01808
-1.16382
-1.37798
-1.7098
-1.58536
0.25895
1.44172
0.915553
0.507604
0.287941
0.150165
0.0601305
-0.000830304
-0.0400868
-0.0639956
-0.0787471
-0.0863149
-0.0844381
-0.0784507
-0.0715176
-0.0610341
-0.0491612
-0.0360027
-0.0204357
-0.00497149
0.0114433
0.0317285
0.0539649
0.0785649
0.107776
0.144593
0.190478
0.251581
0.348988
0.419784
0.426943
0.342818
0.229842
0.157922
0.0995984
0.0489814
0.00611545
-0.0357031
-0.0770329
-0.114849
-0.154163
-0.193773
-0.232284
-0.275719
-0.321152
-0.366705
-0.417445
-0.471854
-0.528659
-0.590411
-0.655675
-0.725188
-0.806059
-0.898253
-1.00581
-1.14898
-1.36224
-1.68581
-1.54448
0.287055
1.43938
0.904627
0.497623
0.278192
0.141979
0.0544563
-0.00554026
-0.0452737
-0.0681711
-0.0820683
-0.0899292
-0.0877276
-0.0811594
-0.0740291
-0.063216
-0.0512129
-0.0370851
-0.0213477
-0.00694857
0.010089
0.0310007
0.0528479
0.0780958
0.108582
0.144226
0.187204
0.247806
0.349676
0.425033
0.421895
0.341544
0.233098
0.161568
0.100399
0.0490145
0.00610284
-0.0350006
-0.0758988
-0.11359
-0.152319
-0.192491
-0.230916
-0.273149
-0.318013
-0.363435
-0.414703
-0.469174
-0.525271
-0.585733
-0.649239
-0.718254
-0.798895
-0.888942
-0.995981
-1.13792
-1.34695
-1.66059
-1.49972
0.322248
1.43392
0.895871
0.488442
0.270109
0.134597
0.0487959
-0.0107507
-0.0503782
-0.072831
-0.0855257
-0.0930031
-0.0912787
-0.0842966
-0.0763775
-0.0647844
-0.0528948
-0.0390311
-0.0228989
-0.00840057
0.00915339
0.030589
0.0516688
0.0765417
0.107984
0.143679
0.185983
0.246575
0.349521
0.426263
0.418776
0.340528
0.235155
0.162861
0.100398
0.0496766
0.00611197
-0.0348497
-0.0742141
-0.111754
-0.150674
-0.190784
-0.229156
-0.270677
-0.315285
-0.360637
-0.411212
-0.465468
-0.521245
-0.580584
-0.643415
-0.712377
-0.790964
-0.878447
-0.986456
-1.12811
-1.33167
-1.63298
-1.46139
0.345133
1.43339
0.883057
0.47897
0.261421
0.128536
0.0436422
-0.0161301
-0.0555518
-0.077403
-0.0895347
-0.0960913
-0.0942902
-0.0874101
-0.0789342
-0.0668356
-0.0546013
-0.0408443
-0.0245339
-0.0095891
0.00792696
0.0296944
0.0506751
0.0753272
0.106907
0.14266
0.186948
0.248415
0.349707
0.425624
0.418893
0.340566
0.235042
0.161506
0.0996573
0.0511811
0.00694554
-0.0347476
-0.0726719
-0.110307
-0.149431
-0.188185
-0.226548
-0.268589
-0.31281
-0.357644
-0.407555
-0.460913
-0.515908
-0.575371
-0.638877
-0.707106
-0.782251
-0.867668
-0.976528
-1.1167
-1.31429
-1.60791
-1.42024
0.379783
1.42986
0.871383
0.4661
0.253847
0.12187
0.037439
-0.0214027
-0.0603892
-0.0818777
-0.0940803
-0.0994223
-0.0965495
-0.0901407
-0.0817679
-0.069518
-0.0567365
-0.0425963
-0.0265069
-0.0110603
0.00675327
0.0285458
0.0501616
0.0748628
0.10582
0.142211
0.18788
0.249513
0.350202
0.42583
0.418784
0.340418
0.233939
0.160323
0.100337
0.0525661
0.00771107
-0.0333788
-0.0708735
-0.109375
-0.14828
-0.185775
-0.22372
-0.265624
-0.309756
-0.354767
-0.404067
-0.456226
-0.510503
-0.570077
-0.633714
-0.700159
-0.773072
-0.859563
-0.968755
-1.10331
-1.2935
-1.58179
-1.38481
0.404335
1.42672
0.860874
0.455889
0.245507
0.115571
0.0303028
-0.0274457
-0.0646846
-0.0861421
-0.0987289
-0.103038
-0.0994538
-0.0930172
-0.0843409
-0.0721001
-0.0590481
-0.0446006
-0.0285986
-0.012747
0.00571866
0.0275022
0.0497886
0.0741089
0.104498
0.142858
0.188975
0.249549
0.350624
0.425561
0.41867
0.340172
0.232434
0.159889
0.101837
0.0529634
0.00796229
-0.0310793
-0.0689242
-0.108188
-0.146547
-0.183859
-0.220961
-0.261533
-0.306256
-0.352295
-0.400254
-0.451056
-0.505587
-0.563942
-0.626546
-0.693118
-0.765452
-0.85189
-0.959188
-1.08929
-1.27177
-1.55026
-1.3524
0.424006
1.42137
0.846887
0.446665
0.236931
0.107902
0.0230838
-0.0333963
-0.0693891
-0.0908242
-0.103278
-0.106833
-0.10336
-0.0962628
-0.0865955
-0.0744694
-0.061335
-0.046687
-0.0306578
-0.0144848
0.00466805
0.0262931
0.0485952
0.0731884
0.103963
0.143422
0.188256
0.249223
0.351995
0.425687
0.419542
0.340649
0.231787
0.15952
0.102448
0.0533571
0.00871801
-0.0296393
-0.0671996
-0.106103
-0.144179
-0.181296
-0.218396
-0.258268
-0.30228
-0.348662
-0.395875
-0.445754
-0.500502
-0.557521
-0.619123
-0.686236
-0.757728
-0.841893
-0.944323
-1.07231
-1.25348
-1.52435
-1.31305
0.449482
1.41348
0.833908
0.434597
0.227126
0.100064
0.0160477
-0.0391922
-0.0749719
-0.0964821
-0.107704
-0.110233
-0.107393
-0.100097
-0.0892541
-0.0768871
-0.0636735
-0.0488446
-0.0327321
-0.0163316
0.0033207
0.0247988
0.0467141
0.0727682
0.105022
0.142712
0.185421
0.249278
0.354546
0.426844
0.419591
0.339798
0.231084
0.160254
0.10332
0.0547995
0.010404
-0.0294083
-0.0659662
-0.103221
-0.141506
-0.178252
-0.215856
-0.25562
-0.297761
-0.343603
-0.390947
-0.44036
-0.494788
-0.551129
-0.611943
-0.678424
-0.748475
-0.830987
-0.929622
-1.05492
-1.23554
-1.49853
-1.26281
0.486537
1.4096
0.817399
0.422036
0.218121
0.0919352
0.00750291
-0.0458682
-0.0804703
-0.102098
-0.112131
-0.114293
-0.111839
-0.103819
-0.0921845
-0.0797491
-0.0662126
-0.0509553
-0.0347938
-0.0181887
0.00155193
0.0231326
0.045193
0.072548
0.105379
0.14106
0.183948
0.250408
0.356024
0.427136
0.41823
0.337233
0.229935
0.162726
0.105645
0.0559854
0.0117831
-0.0285635
-0.0644411
-0.100545
-0.139089
-0.175453
-0.212355
-0.251823
-0.293002
-0.3383
-0.38603
-0.43514
-0.488381
-0.543612
-0.603278
-0.669493
-0.739106
-0.819637
-0.916648
-1.04078
-1.21316
-1.46178
-1.2194
0.51364
1.40148
0.80339
0.408151
0.207056
0.0828089
-0.00139834
-0.053727
-0.0863493
-0.10697
-0.117138
-0.11993
-0.116285
-0.106843
-0.0954252
-0.0828903
-0.0688739
-0.0535617
-0.0373363
-0.0198136
0.000277433
0.0218501
0.0440319
0.0710169
0.103896
0.140694
0.185234
0.251406
0.355613
0.426243
0.418178
0.336252
0.229365
0.163656
0.106677
0.0566423
0.0129234
-0.0266946
-0.0626068
-0.0984804
-0.136375
-0.171787
-0.207842
-0.24746
-0.288385
-0.33282
-0.380662
-0.429541
-0.480966
-0.535299
-0.593608
-0.658806
-0.728805
-0.807665
-0.902402
-1.02462
-1.18771
-1.42274
-1.16657
0.547503
1.39381
0.785001
0.395173
0.194907
0.0714831
-0.0103918
-0.0617008
-0.0933931
-0.112894
-0.122739
-0.12521
-0.120236
-0.110417
-0.0990968
-0.0859669
-0.0719098
-0.0568282
-0.0401701
-0.0214758
-0.0007533
0.020331
0.0426305
0.0696936
0.102339
0.140337
0.186671
0.252577
0.355492
0.426057
0.418849
0.336146
0.228395
0.162628
0.106625
0.0574068
0.0146905
-0.0237967
-0.0608069
-0.0968963
-0.132645
-0.166896
-0.203331
-0.243191
-0.28348
-0.326704
-0.374176
-0.422275
-0.472486
-0.527223
-0.584558
-0.647556
-0.716535
-0.793981
-0.885842
-1.00284
-1.15974
-1.38554
-1.10849
0.587389
1.38492
0.766432
0.380309
0.181832
0.0593362
-0.019834
-0.0700928
-0.101576
-0.120377
-0.12825
-0.129441
-0.124705
-0.115069
-0.103053
-0.0893187
-0.0753179
-0.0597665
-0.0426652
-0.0238516
-0.00272353
0.0181399
0.0408109
0.0696267
0.101789
0.138858
0.187363
0.254425
0.355944
0.426094
0.417943
0.334428
0.226826
0.162345
0.107658
0.058844
0.0163476
-0.0210326
-0.0581595
-0.0941446
-0.128067
-0.16201
-0.198996
-0.238231
-0.277534
-0.320225
-0.366718
-0.413261
-0.463453
-0.518545
-0.57493
-0.636128
-0.702222
-0.777144
-0.867754
-0.979695
-1.13111
-1.34547
-1.04732
0.635756
1.37414
0.744142
0.363133
0.167872
0.0467115
-0.0302023
-0.0785369
-0.109933
-0.128519
-0.134796
-0.134362
-0.129558
-0.119853
-0.107233
-0.0930648
-0.0786575
-0.0627139
-0.0453358
-0.0266641
-0.00526592
0.0161351
0.0391757
0.0688618
0.101319
0.137342
0.186453
0.25537
0.357018
0.426409
0.415046
0.332691
0.228012
0.163987
0.108963
0.0607543
0.0178447
-0.019098
-0.0548596
-0.0900261
-0.123229
-0.157213
-0.194253
-0.232444
-0.270345
-0.312511
-0.358208
-0.403798
-0.453502
-0.507399
-0.563162
-0.623196
-0.686952
-0.760473
-0.84804
-0.953425
-1.09865
-1.30033
-0.972219
0.674554
1.35983
0.719481
0.342859
0.151647
0.0334522
-0.0417185
-0.0882285
-0.118383
-0.136465
-0.142088
-0.140153
-0.134574
-0.124701
-0.111914
-0.0973156
-0.0820992
-0.0660759
-0.0483143
-0.0289986
-0.00800109
0.0139685
0.0374105
0.066539
0.0997316
0.136258
0.18411
0.253636
0.358198
0.429134
0.410906
0.331958
0.230837
0.164865
0.109037
0.0634682
0.0206309
-0.0168797
-0.0515926
-0.0860225
-0.11867
-0.151778
-0.187999
-0.22507
-0.261935
-0.30327
-0.348197
-0.393726
-0.442116
-0.493977
-0.549515
-0.60851
-0.671092
-0.742218
-0.824767
-0.923527
-1.063
-1.2538
-0.905888
0.712683
1.34381
0.690774
0.319872
0.133489
0.0192899
-0.054439
-0.100057
-0.127576
-0.144033
-0.149194
-0.146314
-0.140328
-0.130166
-0.116809
-0.101782
-0.0857573
-0.0692332
-0.0509211
-0.0317462
-0.011477
0.0107031
0.0345062
0.0633242
0.0974765
0.136134
0.183393
0.250812
0.358513
0.434612
0.411926
0.333339
0.232877
0.165757
0.109751
0.0665018
0.0241256
-0.01435
-0.0479416
-0.0812542
-0.113953
-0.145871
-0.179854
-0.215945
-0.252898
-0.292714
-0.33585
-0.381427
-0.429228
-0.479857
-0.533725
-0.590943
-0.652654
-0.719609
-0.797605
-0.893942
-1.02723
-1.19913
-0.824218
0.76978
1.3263
0.660834
0.295973
0.112826
0.00259655
-0.0680392
-0.1125
-0.137542
-0.152503
-0.157205
-0.152936
-0.146033
-0.135444
-0.121185
-0.106105
-0.0899502
-0.0724636
-0.0541602
-0.0358771
-0.015572
0.00695584
0.0310006
0.060541
0.0947246
0.134213
0.182266
0.246468
0.351115
0.427733
0.416661
0.335665
0.233555
0.168204
0.112646
0.0684439
0.026636
-0.0108221
-0.0432256
-0.0756399
-0.107838
-0.138599
-0.170544
-0.205812
-0.24218
-0.279929
-0.321923
-0.366953
-0.413342
-0.462729
-0.515055
-0.570411
-0.62968
-0.693316
-0.769623
-0.862543
-0.984068
-1.13269
-0.734704
0.818411
1.30662
0.628846
0.26809
0.0901275
-0.0156603
-0.0838317
-0.125673
-0.148203
-0.161452
-0.165352
-0.159991
-0.151489
-0.140123
-0.125609
-0.110611
-0.0941367
-0.0761037
-0.0583585
-0.0405961
-0.0199194
0.00294021
0.0272204
0.0570379
0.0908778
0.130196
0.178679
0.23962
0.335941
0.40737
0.423607
0.341128
0.234182
0.169312
0.115439
0.0694378
0.0290385
-0.0063722
-0.0384228
-0.0695399
-0.0994974
-0.129196
-0.160746
-0.194327
-0.228168
-0.264292
-0.306296
-0.349891
-0.392849
-0.440737
-0.492611
-0.545824
-0.601956
-0.664172
-0.738962
-0.826257
-0.932858
-1.05617
-0.637002
0.861628
1.28019
0.589783
0.236261
0.0637591
-0.0370625
-0.10109
-0.139887
-0.160043
-0.170229
-0.172004
-0.166479
-0.157288
-0.144763
-0.129995
-0.114903
-0.0980231
-0.0801532
-0.0627786
-0.0454082
-0.0254461
-0.00212336
0.0228974
0.0513509
0.0845348
0.12439
0.174129
0.234614
0.326452
0.394951
0.434086
0.351302
0.237722
0.168801
0.116406
0.0705081
0.0315733
-0.00246039
-0.0330317
-0.0616473
-0.0897554
-0.118506
-0.148883
-0.179593
-0.21067
-0.245251
-0.286214
-0.327685
-0.367575
-0.41377
-0.463896
-0.514425
-0.568933
-0.630564
-0.700546
-0.779148
-0.874944
-0.976707
-0.530121
0.923802
1.24547
0.540772
0.199662
0.0332631
-0.0625802
-0.120262
-0.154597
-0.172611
-0.179448
-0.177419
-0.171062
-0.162212
-0.148381
-0.132873
-0.117851
-0.101654
-0.0847542
-0.0677763
-0.05115
-0.0322051
-0.00903023
0.016246
0.0434943
0.0757201
0.116624
0.167249
0.227937
0.320092
0.389507
0.436107
0.352144
0.238196
0.166233
0.115385
0.0713238
0.0339131
0.00219153
-0.0251799
-0.051445
-0.0791417
-0.105902
-0.132456
-0.160824
-0.190115
-0.221776
-0.259393
-0.298061
-0.335575
-0.379293
-0.426438
-0.474248
-0.526719
-0.586752
-0.652738
-0.722251
-0.808177
-0.885568
-0.397012
0.983522
1.19928
0.482163
0.155514
-0.00263289
-0.0921686
-0.142462
-0.170083
-0.184064
-0.187086
-0.181304
-0.17332
-0.163966
-0.149278
-0.133467
-0.119046
-0.104327
-0.0892717
-0.0739281
-0.0586363
-0.0408017
-0.0196379
0.00446863
0.0316423
0.06396
0.107174
0.159919
0.221307
0.318455
0.395119
0.357768
0.29518
0.204599
0.144019
0.0994838
0.0599907
0.0268501
-0.000428407
-0.0241619
-0.0473322
-0.0716023
-0.0936824
-0.115373
-0.140383
-0.166074
-0.192642
-0.223998
-0.256804
-0.289635
-0.327316
-0.367052
-0.408104
-0.453924
-0.507793
-0.567381
-0.629448
-0.696663
-0.708649
-0.192081
0.979241
1.08374
0.416584
0.0985155
-0.0471809
-0.122011
-0.160001
-0.178594
-0.186926
-0.18624
-0.179068
-0.170349
-0.160312
-0.146897
-0.132969
-0.120214
-0.107471
-0.0953411
-0.0837334
-0.0716532
-0.0580901
-0.043495
-0.027066
-0.00806328
0.015372
0.0500253
0.0986641
0.166884
0.280217
0.367076
0.225432
0.184883
0.125687
0.0952008
0.0661179
0.0338397
0.00793386
-0.0122943
-0.0314686
-0.0498754
-0.0683463
-0.0835056
-0.0993876
-0.120196
-0.139793
-0.159321
-0.184006
-0.208987
-0.233871
-0.263411
-0.29214
-0.321126
-0.356211
-0.40019
-0.450248
-0.506314
-0.58856
-0.697089
-0.171475
1.21097
1.15383
0.202169
-0.0581344
-0.135297
-0.169326
-0.181651
-0.186177
-0.187209
-0.182059
-0.1735
-0.164762
-0.154903
-0.143412
-0.132354
-0.12217
-0.111244
-0.102899
-0.0964322
-0.0890687
-0.0821365
-0.0770817
-0.0736043
-0.071069
-0.0678866
-0.0549432
-0.024381
0.0373312
0.182254
0.299812
-16.7333
-10.6672
-2.88014
-1.54653
-0.853607
-0.515876
-0.34053
-0.250952
-0.200011
-0.172415
-0.156599
-0.147789
-0.149193
-0.155183
-0.163127
-0.176486
-0.192444
-0.209898
-0.23071
-0.253159
-0.273641
-0.296161
-0.321986
-0.349595
-0.376704
-0.405985
-0.450838
-0.543121
-0.0792428
0.620085
-16.2183
-9.59718
-3.14983
-1.62594
-0.984701
-0.65909
-0.473763
-0.366842
-0.299947
-0.257127
-0.22846
-0.209636
-0.200022
-0.196174
-0.196759
-0.201559
-0.20952
-0.220026
-0.232667
-0.246536
-0.260243
-0.275766
-0.292832
-0.310933
-0.329891
-0.350085
-0.374
-0.386362
-0.0185694
0.661998
-15.2988
-8.71294
-2.76653
-1.58469
-1.05759
-0.75762
-0.567846
-0.446925
-0.367639
-0.313851
-0.27622
-0.250019
-0.23384
-0.22382