# vtk DataFile Version 2.0
scalar
ASCII
DATASET UNSTRUCTURED_GRID
POINTS 2010 float
1.0 0.0 0.0
0.9971 0.0 0.0004
0.9883 0.0 0.0014
0.9738 0.0 0.0031
0.9538 0.0 0.0054
0.9284 0.0 0.0083
0.898 0.0 0.0116
0.863 0.0 0.0152
0.8237 0.0 0.0192
0.7806 0.0 0.0232
0.7342 0.0 0.0274
0.6851 0.0 0.0315
0.6338 0.0 0.0355
0.5809 0.0 0.0392
0.5271 0.0 0.0425
0.4729 0.0 0.0454
0.4191 0.0 0.0477
0.3662 0.0 0.0492
0.3149 0.0 0.05
0.2658 0.0 0.0498
0.2194 0.0 0.0486
0.1763 0.0 0.0465
0.137 0.0 0.0434
0.102 0.0 0.0393
0.0716 0.0 0.0344
0.0462 0.0 0.0286
0.0262 0.0 0.0222
0.0117 0.0 0.0153
0.0029 0.0 0.0079
0.0 0.0 0.0
0.0029 0.0 -0.0079
0.0117 0.0 -0.0153
0.0262 0.0 -0.0222
0.0462 0.0 -0.0286
0.0716 0.0 -0.0344
0.102 0.0 -0.0393
0.137 0.0 -0.0434
0.1763 0.0 -0.0465
0.2194 0.0 -0.0486
0.2658 0.0 -0.0498
0.3149 0.0 -0.05
0.3662 0.0 -0.0492
0.4191 0.0 -0.0477
0.4729 0.0 -0.0454
0.5271 0.0 -0.0425
0.5809 0.0 -0.0392
0.6338 0.0 -0.0355
0.6851 0.0 -0.0315
0.7342 0.0 -0.0274
0.7806 0.0 -0.0232
0.8237 0.0 -0.0192
0.863 0.0 -0.0152
0.898 0.0 -0.0116
0.9284 0.0 -0.0083
0.9538 0.0 -0.0054
0.9738 0.0 -0.0031
0.9883 0.0 -0.0014
0.9971 0.0 -0.0004
1.0 0.0 0.0
1.0 0.1034 0.0
0.9971 0.1034 0.0003
0.9883 0.1034 0.0011
0.9738 0.1034 0.0024
0.9537 0.1034 0.0042
0.9282 0.1034 0.0064
0.8978 0.1034 0.0088
0.8626 0.1034 0.0116
0.8232 0.1034 0.0144
0.78 0.1034 0.0173
0.7336 0.1034 0.0202
0.6843 0.1034 0.023
0.6329 0.1034 0.0256
0.58 0.1034 0.0279
0.5261 0.1034 0.0298
0.4719 0.1034 0.0312
0.418 0.1034 0.0321
0.3651 0.1034 0.0322
0.3138 0.1034 0.0315
0.2647 0.1034 0.03
0.2184 0.1034 0.0276
0.1754 0.1034 0.0243
0.1361 0.1034 0.0202
0.1012 0.1034 0.0151
0.071 0.1034 0.0094
0.0458 0.1034 0.003
0.0259 0.1034 -0.0039
0.0116 0.1034 -0.0113
0.0031 0.1034 -0.0189
0.0004 0.1034 -0.0269
0.0035 0.1034 -0.0346
0.0125 0.1034 -0.0418
0.0271 0.1034 -0.0484
0.0473 0.1034 -0.0543
0.0728 0.1034 -0.0593
0.1033 0.1034 -0.0634
0.1385 0.1034 -0.0665
0.1779 0.1034 -0.0686
0.221 0.1034 -0.0696
0.2674 0.1034 -0.0695
0.3165 0.1034 -0.0684
0.3678 0.1034 -0.0662
0.4206 0.1034 -0.0633
0.4743 0.1034 -0.0596
0.5284 0.1034 -0.0552
0.5821 0.1034 -0.0504
0.6348 0.1034 -0.0453
0.686 0.1034 -0.04
0.735 0.1034 -0.0345
0.7813 0.1034 -0.0291
0.8243 0.1034 -0.0239
0.8635 0.1034 -0.0189
0.8984 0.1034 -0.0143
0.9287 0.1034 -0.0102
0.954 0.1034 -0.0067
0.9739 0.1034 -0.0038
0.9884 0.1034 -0.0017
0.9971 0.1034 -0.0004
1.0 0.1034 0.0
1.0 0.2069 0.0
0.9971 0.2069 0.0003
0.9883 0.2069 0.001
0.9737 0.2069 0.0022
0.9536 0.2069 0.0038
0.9282 0.2069 0.0058
0.8977 0.2069 0.0081
0.8626 0.2069 0.0105
0.8231 0.2069 0.0131
0.7799 0.2069 0.0157
0.7334 0.2069 0.0182
0.6842 0.2069 0.0206
0.6328 0.2069 0.0228
0.5798 0.2069 0.0247
0.5259 0.2069 0.0262
0.4717 0.2069 0.0272
0.4178 0.2069 0.0276
0.3649 0.2069 0.0274
0.3136 0.2069 0.0263
0.2645 0.2069 0.0244
0.2182 0.2069 0.0217
0.1752 0.2069 0.0181
0.136 0.2069 0.0136
0.1011 0.2069 0.0083
0.0709 0.2069 0.0023
0.0458 0.2069 -0.0043
0.026 0.2069 -0.0113
0.0118 0.2069 -0.0188
0.0033 0.2069 -0.0265
0.0006 0.2069 -0.0345
0.0038 0.2069 -0.0422
0.0128 0.2069 -0.0494
0.0275 0.2069 -0.0558
0.0478 0.2069 -0.0615
0.0733 0.2069 -0.0663
0.1038 0.2069 -0.0702
0.139 0.2069 -0.0731
0.1784 0.2069 -0.0749
0.2215 0.2069 -0.0755
0.2679 0.2069 -0.0751
0.3171 0.2069 -0.0736
0.3683 0.2069 -0.0711
0.4211 0.2069 -0.0677
0.4748 0.2069 -0.0636
0.5288 0.2069 -0.0588
0.5825 0.2069 -0.0536
0.6352 0.2069 -0.0481
0.6863 0.2069 -0.0423
0.7353 0.2069 -0.0365
0.7815 0.2069 -0.0308
0.8245 0.2069 -0.0252
0.8636 0.2069 -0.02
0.8985 0.2069 -0.0151
0.9288 0.2069 -0.0107
0.954 0.2069 -0.007
0.9739 0.2069 -0.004
0.9884 0.2069 -0.0018
0.9971 0.2069 -0.0005
1.0 0.2069 0.0
1.0 0.3103 0.0
0.9971 0.3103 0.0002
0.9883 0.3103 0.0009
0.9737 0.3103 0.0021
0.9536 0.3103 0.0036
0.9282 0.3103 0.0055
0.8977 0.3103 0.0076
0.8625 0.3103 0.0099
0.8231 0.3103 0.0123
0.7799 0.3103 0.0146
0.7333 0.3103 0.017
0.6841 0.3103 0.0192
0.6327 0.3103 0.0211
0.5797 0.3103 0.0228
0.5258 0.3103 0.024
0.4716 0.3103 0.0248
0.4177 0.3103 0.0249
0.3648 0.3103 0.0244
0.3135 0.3103 0.0231
0.2644 0.3103 0.021
0.2181 0.3103 0.0181
0.1751 0.3103 0.0142
0.136 0.3103 0.0096
0.1011 0.3103 0.0042
0.0709 0.3103 -0.002
0.0458 0.3103 -0.0087
0.026 0.3103 -0.0158
0.0118 0.3103 -0.0234
0.0034 0.3103 -0.0311
0.0008 0.3103 -0.0391
0.004 0.3103 -0.0468
0.013 0.3103 -0.0539
0.0278 0.3103 -0.0603
0.0481 0.3103 -0.0659
0.0736 0.3103 -0.0706
0.1042 0.3103 -0.0744
0.1394 0.3103 -0.0771
0.1788 0.3103 -0.0787
0.2219 0.3103 -0.0791
0.2683 0.3103 -0.0784
0.3174 0.3103 -0.0767
0.3686 0.3103 -0.074
0.4214 0.3103 -0.0704
0.4751 0.3103 -0.066
0.5291 0.3103 -0.061
0.5827 0.3103 -0.0555
0.6354 0.3103 -0.0498
0.6865 0.3103 -0.0438
0.7355 0.3103 -0.0378
0.7817 0.3103 -0.0318
0.8246 0.3103 -0.026
0.8637 0.3103 -0.0206
0.8986 0.3103 -0.0156
0.9288 0.3103 -0.0111
0.954 0.3103 -0.0072
0.974 0.3103 -0.0041
0.9884 0.3103 -0.0019
0.9971 0.3103 -0.0005
1.0 0.3103 0.0
1.0 0.4138 0.0
0.9971 0.4138 0.0002
0.9883 0.4138 0.0009
0.9737 0.4138 0.002
0.9536 0.4138 0.0035
0.9281 0.4138 0.0053
0.8976 0.4138 0.0073
0.8625 0.4138 0.0094
0.823 0.4138 0.0117
0.7798 0.4138 0.014
0.7333 0.4138 0.0161
0.684 0.4138 0.0182
0.6326 0.4138 0.02
0.5796 0.4138 0.0215
0.5257 0.4138 0.0225
0.4715 0.4138 0.0231
0.4176 0.4138 0.0231
0.3647 0.4138 0.0224
0.3134 0.4138 0.021
0.2643 0.4138 0.0187
0.218 0.4138 0.0156
0.1751 0.4138 0.0117
0.1359 0.4138 0.0069
0.1011 0.4138 0.0013
0.0709 0.4138 -0.0049
0.0459 0.4138 -0.0117
0.0261 0.4138 -0.0189
0.0119 0.4138 -0.0265
0.0035 0.4138 -0.0343
0.0009 0.4138 -0.0422
0.0042 0.4138 -0.05
0.0132 0.4138 -0.057
0.028 0.4138 -0.0634
0.0483 0.4138 -0.0689
0.0739 0.4138 -0.0735
0.1044 0.4138 -0.0772
0.1396 0.4138 -0.0798
0.179 0.4138 -0.0812
0.2222 0.4138 -0.0816
0.2686 0.4138 -0.0807
0.3177 0.4138 -0.0789
0.3689 0.4138 -0.076
0.4216 0.4138 -0.0722
0.4753 0.4138 -0.0676
0.5293 0.4138 -0.0625
0.5829 0.4138 -0.0569
0.6356 0.4138 -0.0509
0.6867 0.4138 -0.0448
0.7356 0.4138 -0.0386
0.7818 0.4138 -0.0325
0.8247 0.4138 -0.0266
0.8638 0.4138 -0.021
0.8986 0.4138 -0.0159
0.9288 0.4138 -0.0113
0.9541 0.4138 -0.0074
0.974 0.4138 -0.0042
0.9884 0.4138 -0.0019
0.9971 0.4138 -0.0005
1.0 0.4138 0.0
1.0 0.5172 0.0
0.9971 0.5172 0.0002
0.9883 0.5172 0.0009
0.9737 0.5172 0.0019
0.9536 0.5172 0.0034
0.9281 0.5172 0.0051
0.8976 0.5172 0.007
0.8625 0.5172 0.0091
0.823 0.5172 0.0113
0.7798 0.5172 0.0135
0.7332 0.5172 0.0155
0.684 0.5172 0.0175
0.6325 0.5172 0.0191
0.5796 0.5172 0.0205
0.5256 0.5172 0.0215
0.4714 0.5172 0.0219
0.4176 0.5172 0.0218
0.3647 0.5172 0.021
0.3134 0.5172 0.0194
0.2643 0.5172 0.0171
0.218 0.5172 0.0138
0.1751 0.5172 0.0098
0.1359 0.5172 0.0049
0.1011 0.5172 -0.0007
0.071 0.5172 -0.007
0.0459 0.5172 -0.0138
0.0261 0.5172 -0.0211
0.012 0.5172 -0.0287
0.0036 0.5172 -0.0365
0.001 0.5172 -0.0445
0.0043 0.5172 -0.0522
0.0133 0.5172 -0.0593
0.0281 0.5172 -0.0656
0.0484 0.5172 -0.0711
0.074 0.5172 -0.0756
0.1046 0.5172 -0.0792
0.1398 0.5172 -0.0817
0.1792 0.5172 -0.0831
0.2223 0.5172 -0.0833
0.2687 0.5172 -0.0824
0.3178 0.5172 -0.0804
0.3691 0.5172 -0.0774
0.4218 0.5172 -0.0735
0.4755 0.5172 -0.0688
0.5294 0.5172 -0.0636
0.5831 0.5172 -0.0578
0.6357 0.5172 -0.0517
0.6868 0.5172 -0.0455
0.7357 0.5172 -0.0392
0.7818 0.5172 -0.033
0.8247 0.5172 -0.027
0.8638 0.5172 -0.0213
0.8987 0.5172 -0.0161
0.9289 0.5172 -0.0115
0.9541 0.5172 -0.0075
0.974 0.5172 -0.0043
0.9884 0.5172 -0.0019
0.9971 0.5172 -0.0005
1.0 0.5172 0.0
1.0 0.6207 0.0
0.9971 0.6207 0.0002
0.9883 0.6207 0.0009
0.9737 0.6207 0.0019
0.9536 0.6207 0.0033
0.9281 0.6207 0.005
0.8976 0.6207 0.0069
0.8624 0.6207 0.0089
0.823 0.6207 0.011
0.7798 0.6207 0.0131
0.7332 0.6207 0.0151
0.684 0.6207 0.0169
0.6325 0.6207 0.0185
0.5795 0.6207 0.0198
0.5256 0.6207 0.0207
0.4714 0.6207 0.021
0.4175 0.6207 0.0208
0.3646 0.6207 0.0199
0.3134 0.6207 0.0183
0.2643 0.6207 0.0158
0.218 0.6207 0.0125
0.175 0.6207 0.0084
0.1359 0.6207 0.0035
0.1011 0.6207 -0.0022
0.071 0.6207 -0.0086
0.0459 0.6207 -0.0155
0.0262 0.6207 -0.0228
0.012 0.6207 -0.0304
0.0036 0.6207 -0.0382
0.0011 0.6207 -0.0462
0.0044 0.6207 -0.0539
0.0135 0.6207 -0.0609
0.0282 0.6207 -0.0672
0.0486 0.6207 -0.0727
0.0741 0.6207 -0.0772
0.1047 0.6207 -0.0807
0.1399 0.6207 -0.0832
0.1793 0.6207 -0.0845
0.2225 0.6207 -0.0846
0.2689 0.6207 -0.0836
0.318 0.6207 -0.0816
0.3692 0.6207 -0.0785
0.4219 0.6207 -0.0745
0.4756 0.6207 -0.0697
0.5295 0.6207 -0.0643
0.5831 0.6207 -0.0585
0.6358 0.6207 -0.0524
0.6869 0.6207 -0.046
0.7358 0.6207 -0.0396
0.7819 0.6207 -0.0334
0.8248 0.6207 -0.0273
0.8638 0.6207 -0.0216
0.8987 0.6207 -0.0163
0.9289 0.6207 -0.0116
0.9541 0.6207 -0.0076
0.974 0.6207 -0.0043
0.9884 0.6207 -0.0019
0.9971 0.6207 -0.0005
1.0 0.6207 0.0
1.0 0.7241 0.0
0.9971 0.7241 0.0002
0.9883 0.7241 0.0008
0.9737 0.7241 0.0019
0.9536 0.7241 0.0032
0.9281 0.7241 0.0049
0.8976 0.7241 0.0067
0.8624 0.7241 0.0087
0.823 0.7241 0.0108
0.7797 0.7241 0.0128
0.7332 0.7241 0.0147
0.6839 0.7241 0.0165
0.6325 0.7241 0.018
0.5795 0.7241 0.0192
0.5256 0.7241 0.02
0.4714 0.7241 0.0203
0.4175 0.7241 0.0201
0.3646 0.7241 0.0191
0.3133 0.7241 0.0174
0.2643 0.7241 0.0149
0.218 0.7241 0.0115
0.175 0.7241 0.0073
0.1359 0.7241 0.0023
0.1011 0.7241 -0.0034
0.071 0.7241 -0.0098
0.0459 0.7241 -0.0167
0.0262 0.7241 -0.024
0.0121 0.7241 -0.0317
0.0037 0.7241 -0.0395
0.0011 0.7241 -0.0475
0.0044 0.7241 -0.0552
0.0135 0.7241 -0.0622
0.0283 0.7241 -0.0685
0.0486 0.7241 -0.0739
0.0742 0.7241 -0.0784
0.1048 0.7241 -0.0819
0.14 0.7241 -0.0843
0.1794 0.7241 -0.0855
0.2226 0.7241 -0.0856
0.269 0.7241 -0.0846
0.3181 0.7241 -0.0824
0.3693 0.7241 -0.0793
0.422 0.7241 -0.0752
[...]
POINT_DATA 2010
SCALARS cp1 float
LOOKUP_TABLE default
0.418119
0.32915
0.219571
0.159919
0.101813
0.0510592
0.00782274
-0.0359873
-0.0776098
-0.114002
-0.153895
-0.195812
-0.237858
-0.280538
-0.324001
-0.373302
-0.427771
-0.482493
-0.540674
-0.603599
-0.669645
-0.748045
-0.838899
-0.942382
-1.08277
-1.28375
-1.61339
-2.39984
-3.38661
-1.40254
1.27384
1.25742
0.777424
0.504402
0.319386
0.190982
0.098737
0.034219
-0.00704115
-0.0352979
-0.0505767
-0.0535829
-0.0553903
-0.0521148
-0.0415923
-0.0327982
-0.0243555
-0.011926
0.00461433
0.0208686
0.0363062
0.0581239
0.0838771
0.111209
0.145406
0.19042
0.24597
0.345136
0.421383
0.417928
0.340086
0.234826
0.165125
0.104617
0.0515776
0.00600306
-0.0373768
-0.0789579
-0.11789
-0.157686
-0.198967
-0.241523
-0.285847
-0.332018
-0.382477
-0.438403
-0.497191
-0.558726
-0.626335
-0.701868
-0.789188
-0.890392
-1.0082
-1.16046
-1.37578
-1.70168
-2.14298
-1.86362
0.0828367
1.54303
1.07755
0.675773
0.4383
0.278375
0.167551
0.0877079
0.0316012
-0.00560189
-0.0312958
-0.0460752
-0.0506367
-0.0519714
-0.0487855
-0.0397814
-0.0309867
-0.0220567
-0.00916635
0.00624096
0.0220013
0.0390969
0.0600256
0.0854197
0.114777
0.150813
0.198387
0.26119
0.355027
0.423887
0.424645
0.342099
0.232954
0.162081
0.102416
0.0492192
0.00267833
-0.0398402
-0.0814648
-0.120753
-0.160549
-0.201535
-0.243781
-0.288916
-0.336218
-0.387015
-0.443098
-0.503429
-0.565977
-0.634842
-0.713199
-0.800316
-0.899923
-1.01463
-1.15252
-1.34037
-1.61457
-2.03196
-2.05774
-0.357855
1.39858
1.07838
0.633779
0.392744
0.243036
0.141823
0.0699692
0.0205432
-0.0115396
-0.0336359
-0.0473212
-0.0518526
-0.0521916
-0.0483619
-0.0393794
-0.0304641
-0.0214942
-0.00839492
0.00623373
0.0217867
0.0397634
0.059162
0.0832429
0.113454
0.149585
0.194453
0.250104
0.341572
0.414648
0.437859
0.355925
0.241229
0.163834
0.102839
0.0491656
0.00257505
-0.0397075
-0.081849
-0.121371
-0.161123
-0.202821
-0.245053
-0.289974
-0.33727
-0.387982
-0.443035
-0.502522
-0.565406
-0.633463
-0.709645
-0.792561
-0.886732
-0.996642
-1.12697
-1.30821
-1.5826
-2.00382
-2.03419
-0.13618
1.46274
1.04815
0.616568
0.380512
0.231802
0.129031
0.0581993
0.0111231
-0.0190312
-0.0381961
-0.0508341
-0.0559109
-0.0543942
-0.0490305
-0.0409
-0.0316691
-0.0215339
-0.00894175
0.0050348
0.0211138
0.0399198
0.0590588
0.0818415
0.11177
0.148517
0.191936
0.243148
0.331784
0.40339
0.440352
0.358546
0.241924
0.163494
0.101337
0.0476778
0.00316152
-0.0384637
-0.0818918
-0.122251
-0.161009
-0.203011
-0.245526
-0.290193
-0.337288
-0.38735
-0.4422
-0.500847
-0.563785
-0.630943
-0.704023
-0.78573
-0.877782
-0.983428
-1.11274
-1.28978
-1.55567
-1.96432
-1.97351
-0.0701128
1.46616
1.02991
0.60158
0.367753
0.221334
0.120228
0.0506961
0.00491871
-0.0250444
-0.0431238
-0.0547804
-0.0594512
-0.0563728
-0.0500863
-0.0432062
-0.033566
-0.0218598
-0.00976368
0.00413797
0.0201539
0.0388024
0.0595804
0.0824231
0.11027
0.145798
0.190264
0.245187
0.33494
0.405667
0.436491
0.353821
0.237646
0.162179
0.100851
0.0474141
0.00354648
-0.0381825
-0.0818251
-0.122767
-0.161227
-0.202312
-0.244349
-0.289341
-0.337181
-0.386053
-0.440415
-0.498779
-0.561181
-0.627389
-0.697766
-0.778585
-0.869894
-0.972732
-1.09952
-1.27303
-1.53036
-1.93129
-1.93002
-0.0104574
1.46126
1.01586
0.589664
0.35653
0.212222
0.113373
0.0444252
-0.000907163
-0.0297923
-0.047729
-0.0587837
-0.0625207
-0.0588441
-0.0521119
-0.0450352
-0.0351055
-0.0231527
-0.0105476
0.0037623
0.0190705
0.0373489
0.05932
0.0829715
0.109708
0.144013
0.190314
0.249631
0.339867
0.407764
0.434734
0.352371
0.236353
0.160946
0.10108
0.0480835
0.00337724
-0.0388253
-0.0817646
-0.122274
-0.160995
-0.201377
-0.242909
-0.287994
-0.335702
-0.384255
-0.43851
-0.496491
-0.558015
-0.623372
-0.692187
-0.771597
-0.862348
-0.964091
-1.08728
-1.25708
-1.50689
-1.90181
-1.88155
0.0341895
1.45942
1.0025
0.580333
0.346562
0.203559
0.106334
0.0382106
-0.00607158
-0.0338148
-0.051879
-0.0623771
-0.0653925
-0.0617113
-0.0547927
-0.0465126
-0.0363171
-0.0250079
-0.0115923
0.00317041
0.0183144
0.0365523
0.0582037
0.082273
0.109699
0.144272
0.189988
0.24978
0.341829
0.410057
0.431924
0.351994
0.238355
0.161119
0.10058
0.0490206
0.00418236
-0.0390634
-0.0815833
-0.121404
-0.160253
-0.200579
-0.242067
-0.286147
-0.332946
-0.382105
-0.436645
-0.49404
-0.554399
-0.618765
-0.687143
-0.765024
-0.853909
-0.953997
-1.0769
-1.24577
-1.48964
-1.87242
-1.83565
0.0714989
1.4549
0.991288
0.57074
0.340371
0.196181
0.0988599
0.0321171
-0.0106768
-0.0381065
-0.0561101
-0.0654154
-0.0677718
-0.0642623
-0.0573685
-0.0486625
-0.0381503
-0.026512
-0.0126257
0.00207261
0.0174469
0.0357525
0.0570447
0.0819456
0.110723
0.14478
0.187414
0.24589
0.342051
0.414072
0.429264
0.350434
0.239743
0.1619
0.0994839
0.0501347
0.00541751
-0.0393145
-0.0803919
-0.12023
-0.159806
-0.199249
-0.240829
-0.284554
-0.33086
-0.380248
-0.434
-0.490583
-0.549747
-0.613704
-0.682057
-0.758951
-0.846061
-0.944933
-1.06875
-1.2336
-1.47291
-1.84842
-1.78979
0.106351
1.45408
0.978576
0.561743
0.33398
0.188935
0.0921427
0.0269912
-0.0154766
-0.042637
-0.0600801
-0.0685272
-0.0702584
-0.0669575
-0.0594646
-0.0504851
-0.040458
-0.028233
-0.0138338
0.000727628
0.0165746
0.0350667
0.0557569
0.0814956
0.111552
0.144804
0.186399
0.244688
0.342387
0.416206
0.428472
0.348983
0.238714
0.161443
0.0994082
0.0510368
0.00545563
-0.0392395
-0.0784826
-0.119177
-0.159378
-0.197324
-0.238752
-0.283224
-0.329484
-0.377926
-0.430252
-0.48598
-0.545172
-0.609549
-0.677713
-0.752704
-0.838139
-0.937842
-1.06178
-1.21914
-1.45164
-1.82211
-1.75703
0.133495
1.45296
0.969292
0.551801
0.325779
0.181178
0.0863027
0.023155
-0.0199909
-0.0474755
-0.0641133
-0.0718612
-0.0728222
-0.069517
-0.0617751
-0.0523552
-0.0423553
-0.0298654
-0.0156541
-0.000907022
0.015939
0.0350296
0.0545372
0.0797351
0.111353
0.14583
0.188047
0.245915
0.342569
0.41617
0.428583
0.348485
0.237107
0.160862
0.10056
0.0508378
0.004664
-0.0382379
-0.0769975
-0.117765
-0.157986
-0.195884
-0.236587
-0.281364
-0.327382
-0.374407
-0.426455
-0.482357
-0.54122
-0.605558
-0.673879
-0.746251
-0.82938
-0.930112
-1.05272
-1.20606
-1.43235
-1.79542
-1.73021
0.149731
1.45051
0.95964
0.542591
0.317572
0.174853
0.0810831
0.0188409
-0.0244815
-0.0524489
-0.0681826
-0.0747576
-0.0753511
-0.0719348
-0.0646485
-0.0550313
-0.0438209
-0.0310029
-0.0175013
-0.00266174
0.0148183
0.0347565
0.0543665
0.0784862
0.110199
0.146043
0.189456
0.247024
0.342508
0.416091
0.428795
0.348588
0.236237
0.160105
0.100856
0.0504183
0.00472078
-0.0367625
-0.075732
-0.115623
-0.155955
-0.194912
-0.23452
-0.279067
-0.324736
-0.370691
-0.423159
-0.479694
-0.537093
-0.600195
-0.669235
-0.739613
-0.821595
-0.922291
-1.04106
-1.19256
-1.4181
-1.77497
-1.68636
0.188219
1.4482
0.948822
0.534157
0.309037
0.168066
0.0753008
0.0136067
-0.0286718
-0.0568661
-0.0721491
-0.0778192
-0.078602
-0.0746316
-0.0671772
-0.0575777
-0.0454518
-0.0324602
-0.0191934
-0.00414501
0.0133765
0.0338469
0.0545703
0.0782623
0.108481
0.144441
0.190207
0.248847
0.343057
0.416067
0.428935
0.34874
0.235253
0.159033
0.10162
0.051638
0.005775
-0.0357769
-0.0749521
-0.113654
-0.154008
-0.193358
-0.232298
-0.27653
-0.322075
-0.367379
-0.419413
-0.476326
-0.532537
-0.594504
-0.663049
-0.732822
-0.814882
-0.913688
-1.02905
-1.18001
-1.40371
-1.74956
-1.64159
0.221311
1.44538
0.936235
0.524079
0.301518
0.160707
0.0689909
0.00845405
-0.032897
-0.0609965
-0.0761437
-0.0813728
-0.0820806
-0.0774587
-0.0694369
-0.0596193
-0.0475398
-0.0348598
-0.020906
-0.00500685
0.0123853
0.0323074
0.0535538
0.0777025
0.107734
0.14384
0.189672
0.249519
0.344498
0.416276
0.429388
0.348689
0.233944
0.158885
0.103569
0.0529193
0.00682179
-0.0348353
-0.0744016
-0.112087
-0.152086
-0.191263
-0.230111
-0.273756
-0.318534
-0.363893
-0.415957
-0.472157
-0.527325
-0.588428
-0.656261
-0.727368
-0.808461
-0.90287
-1.01674
-1.1678
-1.3893
-1.72199
-1.59856
0.252776
1.44452
0.92748
0.515016
0.293466
0.153518
0.0619618
0.00227986
-0.0380861
-0.0650296
-0.0794252
-0.085136
-0.0857347
-0.0807664
-0.072054
-0.0615631
-0.0498294
-0.0373378
-0.0225787
-0.00574745
0.0112869
0.0304344
0.0523198
0.0767849
0.107292
0.144224
0.187882
0.248832
0.346774
0.417328
0.429307
0.347697
0.233406
0.160149
0.104455
0.0530165
0.00792812
-0.0331248
-0.073124
-0.110606
-0.14996
-0.188884
-0.227624
-0.270561
-0.31425
-0.360135
-0.412717
-0.467529
-0.521803
-0.581905
-0.649429
-0.721943
-0.800744
-0.891956
-1.00515
-1.15331
-1.3727
-1.6972
-1.56435
0.274361
1.44224
0.915394
0.504781
0.284159
0.147191
0.0558943
-0.00394435
-0.0438661
-0.0697446
-0.0830086
-0.0891214
-0.0896117
-0.0842432
-0.0749621
-0.0640761
-0.0520954
-0.0390004
-0.0244436
-0.00743525
0.00983461
0.0286933
0.0514513
0.0760477
0.106908
0.144722
0.187112
0.248364
0.347665
0.417287
0.428323
0.345773
0.233746
0.16236
0.104537
0.0534252
0.00926949
-0.0317438
-0.0713359
-0.108899
-0.147594
-0.186019
-0.224344
-0.267133
-0.310777
-0.356469
-0.407971
-0.461547
-0.516613
-0.576145
-0.642538
-0.71511
-0.792226
-0.881937
-0.993789
-1.1372
-1.35089
-1.66887
-1.51534
0.309463
1.43562
0.90291
0.493753
0.274537
0.139806
0.0503951
-0.0103466
-0.0503249
-0.075405
-0.0874866
-0.0929335
-0.0931519
-0.0872948
-0.0780098
-0.0673321
-0.0545759
-0.040755
-0.0265804
-0.00945798
0.0085594
0.0269897
0.0499978
0.0756131
0.106316
0.14416
0.187618
0.249183
0.347433
0.416512
0.428326
0.344971
0.234038
0.16315
0.104389
0.0547236
0.0106759
-0.0309105
-0.0695652
-0.107026
-0.144953
-0.182616
-0.220601
-0.263189
-0.307312
-0.35288
-0.402412
-0.4547
-0.511491
-0.570863
-0.634526
-0.706536
-0.783541
-0.870673
-0.979894
-1.12169
-1.32552
-1.6337
-1.4696
0.340906
1.43092
0.886695
0.48195
0.263541
0.131039
0.0432229
-0.0172179
-0.0567318
-0.0811781
-0.0926069
-0.0969319
-0.096521
-0.0904583
-0.0813039
-0.070694
-0.0573125
-0.0431584
-0.0288528
-0.0113091
0.00711017
0.0253416
0.0487862
0.0752514
0.10484
0.142231
0.188392
0.251142
0.347859
0.416746
0.42851
0.344745
0.233086
0.162321
0.105115
0.0563267
0.0118086
-0.0295048
-0.0674994
-0.104848
-0.142124
-0.178996
-0.217059
-0.259186
-0.302632
-0.347977
-0.397177
-0.448705
-0.505062
-0.564026
-0.625536
-0.696309
-0.773349
-0.859357
-0.966552
-1.10567
-1.30166
-1.59618
-1.41576
0.379924
1.42656
0.873963
0.467015
0.252841
0.122053
0.0345502
-0.02461
-0.0631407
-0.0869136
-0.0982211
-0.101457
-0.0998779
-0.0941832
-0.0853901
-0.0743044
-0.0600412
-0.0455286
-0.0310892
-0.0134637
0.004751
0.0236285
0.0481569
0.0747233
0.104137
0.141527
0.188811
0.252061
0.347728
0.416594
0.428254
0.344312
0.231664
0.162077
0.106923
0.0569603
0.0124169
-0.0272031
-0.0648972
-0.102138
-0.139285
-0.175386
-0.213063
-0.255226
-0.297693
-0.342159
-0.391352
-0.442105
-0.496654
-0.555716
-0.617272
-0.685884
-0.761549
-0.847638
-0.951906
-1.08436
-1.27667
-1.5622
-1.36721
0.413889
1.42164
0.856539
0.454
0.240262
0.111273
0.0248619
-0.0327386
-0.0703075
-0.0926819
-0.103296
-0.106365
-0.10442
-0.0986652
-0.0895792
-0.0778238
-0.0631206
-0.0483227
-0.0333722
-0.0155803
0.00235347
0.0221862
0.0471016
0.0732147
0.103415
0.141275
0.189349
0.252841
0.34775
0.416596
0.429329
0.344798
0.231308
0.161688
0.107101
0.0573934
0.0141643
-0.0244922
-0.0621673
-0.0994571
-0.136381
-0.171357
-0.208028
-0.250099
-0.292652
-0.33636
-0.384235
-0.433855
-0.48808
-0.54717
-0.607951
-0.674632
-0.748427
-0.832661
-0.934102
-1.06372
-1.24976
-1.52157
-1.30945
0.451414
1.41465
0.838653
0.437255
0.227414
0.0998725
0.0140623
-0.0417186
-0.0777398
-0.098757
-0.108572
-0.11213
-0.110289
-0.10345
-0.0934341
-0.081002
-0.0663573
-0.0519218
-0.0363593
-0.0178869
0.000572237
0.0210746
0.0456967
0.0715766
0.10138
0.139593
0.188483
0.252151
0.349153
0.420487
0.427989
0.344769
0.233321
0.162596
0.10703
0.0593868
0.0169805
-0.0225208
-0.0599005
-0.0963629
-0.132328
-0.166758
-0.203073
-0.243718
-0.285895
-0.329838
-0.376338
-0.425281
-0.479896
-0.537082
-0.595689
-0.661874
-0.734239
-0.815336
-0.914998
-1.04393
-1.22131
-1.47349
-1.2418
0.493917
1.40651
0.816074
0.419429
0.213056
0.0877417
0.00296801
-0.0510108
-0.0855126
-0.106213
-0.115624
-0.118756
-0.115975
-0.107707
-0.097503
-0.0847339
-0.0695908
-0.0554432
-0.0401009
-0.0210124
-0.00134531
0.0192108
0.0435439
0.0705926
0.100535
0.138505
0.185424
0.24753
0.34966
0.425555
0.422527
0.343242
0.23635
0.165878
0.107929
0.0608739
0.0193078
-0.0202955
-0.0577816
-0.0928569
-0.126837
-0.161425
-0.198076
-0.236899
-0.278033
-0.322114
-0.368103
-0.416159
-0.469337
-0.524554
-0.582681
-0.648432
-0.718456
-0.796962
-0.894466
-1.01943
-1.1897
-1.42724
-1.17018
0.542237
1.39639
0.793525
0.39834
0.196701
0.074423
-0.0082362
-0.0613998
-0.0944395
-0.11462
-0.123835
-0.125513
-0.121261
-0.112014
-0.10178
-0.0892621
-0.0737827
-0.0589266
-0.0434514
-0.0241349
-0.00378615
0.0161495
0.0402923
0.0692984
0.100297
0.138338
0.183955
0.244933
0.349012
0.426283
0.419491
0.341845
0.237213
0.167109
0.108496
0.0612034
0.0210282
-0.0171959
-0.0546453
-0.0886665
-0.121042
-0.155329
-0.191758
-0.229688
-0.269861
-0.312747
-0.35821
-0.405201
-0.455847
-0.511144
-0.569306
-0.632217
-0.70015
-0.777161
-0.871854
-0.990664
-1.1528
-1.37564
-1.08266
0.601839
1.38314
0.764837
0.375908
0.179048
0.0591709
-0.0209093
-0.0731785
-0.10428
-0.123308
-0.132
-0.1322
-0.126897
-0.117301
-0.106811
-0.0943416
-0.0785307
-0.062463
-0.0463034
-0.027351
-0.00711577
0.0129901
0.0373433
0.0664506
0.0980615
0.137542
0.184684
0.246142
0.349142
0.425318
0.418317
0.339464
0.234304
0.166895
0.110164
0.062569
0.0227358
-0.0144153
-0.0502514
-0.0832293
-0.115519
-0.148651
-0.184071
-0.22147
-0.260378
-0.301489
-0.345798
-0.391825
-0.440919
-0.496596
-0.553472
-0.612533
-0.680397
-0.756184
-0.845018
-0.957547
-1.10874
-1.31289
-1.00732
0.64437
1.368
0.735604
0.352835
0.158683
0.0406874
-0.0362092
-0.0856689
-0.115164
-0.132452
-0.139792
-0.139152
-0.133296
-0.123378
-0.112406
-0.0994584
-0.0827977
-0.065998
-0.0497502
-0.0316249
-0.0115419
0.0101756
0.0350005
0.0626005
0.0946697
0.136132
0.18442
0.246891
0.350108
0.424999
0.416208
0.336075
0.231198
0.167018
0.111759
0.0642005
0.0249933
-0.011392
-0.0452783
-0.0771386
-0.109559
-0.141502
-0.175072
-0.210955
-0.248559
-0.288268
-0.331057
-0.375874
-0.423987
-0.478554
-0.53369
-0.590461
-0.657612
-0.731782
-0.813782
-0.919927
-1.06003
-1.24523
-0.918585
0.706262
1.34901
0.701369
0.325913
0.134782
0.0196708
-0.0530258
-0.0988556
-0.126805
-0.14279
-0.148614
-0.146393
-0.139433
-0.129346
-0.117883
-0.104362
-0.0873661
-0.0703492
-0.0542105
-0.0363975
-0.0165728
0.00615267
0.03244
0.0594886
0.0908692
0.1321
0.181299
0.247266
0.351649
0.424526
0.414081
0.332867
0.227635
0.163943
0.110807
0.066282
0.0279025
-0.00834628
-0.0408581
-0.0705139
-0.101328
-0.132796
-0.164678
-0.197773
-0.233893
-0.272422
-0.313477
-0.356906
-0.403923
-0.456117
-0.509147
-0.564261
-0.629113
-0.701565
-0.778449
-0.877304
-1.00861
-1.16991
-0.805867
0.76505
1.3254
0.659091
0.293735
0.109198
-0.0027938
-0.0718901
-0.113551
-0.139132
-0.154195
-0.15814
-0.153297
-0.14525
-0.135129
-0.122838
-0.108839
-0.0924887
-0.0753482
-0.058804
-0.0413661
-0.0226016
-0.000376406
0.0270757
0.0553486
0.0866643
0.12736
0.177428
0.247019
0.352878
0.424023
0.407733
0.327307
0.223362
0.159626
0.109339
0.0684228
0.0308054
-0.00508099
-0.0360754
-0.0625389
-0.0905005
-0.12131
-0.151841
-0.182172
-0.215938
-0.252744
-0.291415
-0.333022
-0.378618
-0.427782
-0.478734
-0.532063
-0.594036
-0.662744
-0.735555
-0.829318
-0.948896
-1.08459
-0.679704
0.838486
1.29297
0.611081
0.255871
0.0788051
-0.029188
-0.0930646
-0.130089
-0.152671
-0.165053
-0.166071
-0.159307
-0.150855
-0.140391
-0.126684
-0.112293
-0.0975706
-0.0809495
-0.0640823
-0.047712
-0.0304548
-0.00891083
0.0179777
0.0470446
0.0810873
0.123035
0.171949
0.242715
0.352178
0.426
0.406848
0.323165
0.222564
0.158267
0.108461
0.0692241
0.0342264
0.00144109
-0.0282254
-0.0529811
-0.0784025
-0.106891
-0.135062
-0.163029
-0.19403
-0.228349
-0.263615
-0.302014
-0.344746
-0.390424
-0.439356
-0.49064
-0.549839
-0.614123
-0.683055
-0.770426
-0.875334
-0.984747
-0.540192
0.913974
1.24976
0.549103
0.206841
0.0389051
-0.0602235
-0.116488
-0.148312
-0.166726
-0.173907
-0.171618
-0.163734
-0.1539
-0.142929
-0.129546
-0.115342
-0.101877
-0.0869734
-0.071051
-0.056519
-0.0408005
-0.0201003
0.00455901
0.0326174
0.0690276
0.113774
0.164212
0.234136
0.345848
0.426913
0.324533
0.262487
0.186337
0.134902
0.0916594
0.0559155
0.0254119
-0.00184168
-0.0279353
-0.0504363
-0.0721799
-0.0954454
-0.118726
-0.142576
-0.169282
-0.198606
-0.228062
-0.260599
-0.297135
-0.335748
-0.377579
-0.421688
-0.473151
-0.530181
-0.592465
-0.669756
-0.751498
-0.794493
-0.308463
0.935232
1.12986
0.47714
0.141979
-0.0125513
-0.0945464
-0.138145
-0.162158
-0.174011
-0.176358
-0.172413
-0.164295
-0.153758
-0.143184
-0.132175
-0.11979
-0.107985
-0.0966955
-0.0845108
-0.0735791
-0.0621263
-0.0476528
-0.0324058
-0.0144777
0.0108583
0.0453834
0.0911227
0.163101
0.282629
0.370929
0.173131
0.137263
0.100773
0.083969
0.0554825
0.0272732
0.00276038
-0.017261
-0.0378061
-0.0554603
-0.0712892
-0.0880023
-0.104829
-0.122324
-0.143457
-0.166437
-0.187524
-0.212483
-0.240979
-0.269318
-0.299924
-0.330857
-0.369784
-0.415436
-0.465633
-0.534331
-0.621724
-0.765793
-0.276964
1.18142
1.21968
0.260633
-0.0244464
-0.110646
-0.149646
-0.167238
-0.177146
-0.179811
-0.177091
-0.171923
-0.163396
-0.152745
-0.14348
-0.135435
-0.125249
-0.11596
-0.109923
-0.102412
-0.0965066
-0.0923449
-0.0880498
-0.0878129
-0.0888307
-0.0863716
-0.0777944
-0.0535894
0.00663177
0.153516
0.270775
-26.8607
-16.1466
-3.6388
-1.92116
-1.03651
-0.636946
-0.423727
-0.307385
-0.241564
-0.20151
-0.178423
-0.16756
-0.164146
-0.166413
-0.176351
-0.187517
-0.200069
-0.219107
-0.239654
-0.260453
-0.283243
-0.307393
-0.335033
-0.363267
-0.391393
-0.430159
-0.476906
-0.588633
-0.143251
0.556121
-21.1502
-12.0984
-3.89583
-2.03644
-1.22704
-0.817033
-0.588095
-0.452369
-0.366638
-0.309393
-0.271112
-0.246269
-0.230355
-0.221757
-0.220293
-0.221721
-0.226439
-0.236144
-0.247807
-0.260514
-0.274572
-0.290155
-0.307977
-0.326331
-0.345743
-0.37082
-0.398007
-0.42239
-0.0691847
0.607612
-16.2056
-9.66782
-3.38659
-2.01728
-1.33138
-0.947613
-0.710602
-0.556872
-0.45464
-0.383501
-0.334294
-0.29927
-0.274965
-0.259217
-0.250678
-0.245763
-0.244784
-0.248431
-0.253916