# vtk DataFile Version 2.0
scalar
ASCII
DATASET UNSTRUCTURED_GRID
POINTS 2010 float
1.0 0.0 0.0
0.9971 0.0 0.0004
0.9883 0.0 0.0014
0.9738 0.0 0.0031
0.9538 0.0 0.0054
0.9284 0.0 0.0083
0.898 0.0 0.0116
0.863 0.0 0.0152
0.8237 0.0 0.0192
0.7806 0.0 0.0232
0.7342 0.0 0.0274
0.6851 0.0 0.0315
0.6338 0.0 0.0355
0.5809 0.0 0.0392
0.5271 0.0 0.0425
0.4729 0.0 0.0454
0.4191 0.0 0.0477
0.3662 0.0 0.0492
0.3149 0.0 0.05
0.2658 0.0 0.0498
0.2194 0.0 0.0486
0.1763 0.0 0.0465
0.137 0.0 0.0434
0.102 0.0 0.0393
0.0716 0.0 0.0344
0.0462 0.0 0.0286
0.0262 0.0 0.0222
0.0117 0.0 0.0153
0.0029 0.0 0.0079
0.0 0.0 0.0
0.0029 0.0 -0.0079
0.0117 0.0 -0.0153
0.0262 0.0 -0.0222
0.0462 0.0 -0.0286
0.0716 0.0 -0.0344
0.102 0.0 -0.0393
0.137 0.0 -0.0434
0.1763 0.0 -0.0465
0.2194 0.0 -0.0486
0.2658 0.0 -0.0498
0.3149 0.0 -0.05
0.3662 0.0 -0.0492
0.4191 0.0 -0.0477
0.4729 0.0 -0.0454
0.5271 0.0 -0.0425
0.5809 0.0 -0.0392
0.6338 0.0 -0.0355
0.6851 0.0 -0.0315
0.7342 0.0 -0.0274
0.7806 0.0 -0.0232
0.8237 0.0 -0.0192
0.863 0.0 -0.0152
0.898 0.0 -0.0116
0.9284 0.0 -0.0083
0.9538 0.0 -0.0054
0.9738 0.0 -0.0031
0.9883 0.0 -0.0014
0.9971 0.0 -0.0004
1.0 0.0 0.0
1.0 0.1034 0.0
0.9971 0.1034 0.0003
0.9883 0.1034 0.0013
0.9738 0.1034 0.0029
0.9537 0.1034 0.005
0.9283 0.1034 0.0076
0.8979 0.1034 0.0106
0.8629 0.1034 0.0139
0.8235 0.1034 0.0174
0.7804 0.1034 0.021
0.7339 0.1034 0.0247
0.6848 0.1034 0.0283
0.6334 0.1034 0.0318
0.5805 0.1034 0.035
0.5267 0.1034 0.0378
0.4725 0.1034 0.0401
0.4187 0.1034 0.0418
0.3658 0.1034 0.0428
0.3145 0.1034 0.0431
0.2653 0.1034 0.0424
0.219 0.1034 0.0408
0.1759 0.1034 0.0382
0.1366 0.1034 0.0347
0.1016 0.1034 0.0302
0.0713 0.1034 0.025
0.046 0.1034 0.019
0.026 0.1034 0.0124
0.0116 0.1034 0.0053
0.0029 0.1034 -0.0022
0.0001 0.1034 -0.0101
0.0031 0.1034 -0.0179
0.0119 0.1034 -0.0252
0.0264 0.1034 -0.0321
0.0465 0.1034 -0.0383
0.072 0.1034 -0.0437
0.1024 0.1034 -0.0483
0.1375 0.1034 -0.0521
0.1768 0.1034 -0.0548
0.2199 0.1034 -0.0565
0.2663 0.1034 -0.0572
0.3155 0.1034 -0.0569
0.3668 0.1034 -0.0556
0.4196 0.1034 -0.0535
0.4734 0.1034 -0.0507
0.5275 0.1034 -0.0473
0.5813 0.1034 -0.0434
0.6341 0.1034 -0.0392
0.6854 0.1034 -0.0347
0.7345 0.1034 -0.0301
0.7808 0.1034 -0.0254
0.8239 0.1034 -0.0209
0.8632 0.1034 -0.0166
0.8982 0.1034 -0.0126
0.9285 0.1034 -0.009
0.9538 0.1034 -0.0059
0.9739 0.1034 -0.0034
0.9883 0.1034 -0.0015
0.9971 0.1034 -0.0004
1.0 0.1034 0.0
1.0 0.2069 0.0
0.9971 0.2069 0.0003
0.9883 0.2069 0.0013
0.9738 0.2069 0.0028
0.9537 0.2069 0.0048
0.9283 0.2069 0.0074
0.8979 0.2069 0.0103
0.8628 0.2069 0.0135
0.8235 0.2069 0.0169
0.7803 0.2069 0.0204
0.7339 0.2069 0.0239
0.6847 0.2069 0.0274
0.6333 0.2069 0.0307
0.5804 0.2069 0.0338
0.5266 0.2069 0.0364
0.4724 0.2069 0.0386
0.4185 0.2069 0.0402
0.3657 0.2069 0.041
0.3143 0.2069 0.0411
0.2652 0.2069 0.0403
0.2188 0.2069 0.0385
0.1758 0.2069 0.0358
0.1365 0.2069 0.0322
0.1015 0.2069 0.0277
0.0712 0.2069 0.0223
0.0459 0.2069 0.0163
0.026 0.2069 0.0097
0.0116 0.2069 0.0025
0.0029 0.2069 -0.005
0.0001 0.2069 -0.0129
0.0031 0.2069 -0.0207
0.012 0.2069 -0.0281
0.0265 0.2069 -0.0348
0.0467 0.2069 -0.041
0.0721 0.2069 -0.0464
0.1025 0.2069 -0.0509
0.1376 0.2069 -0.0545
0.177 0.2069 -0.0571
0.2201 0.2069 -0.0587
0.2665 0.2069 -0.0593
0.3156 0.2069 -0.0588
0.3669 0.2069 -0.0574
0.4198 0.2069 -0.0552
0.4736 0.2069 -0.0522
0.5277 0.2069 -0.0487
0.5814 0.2069 -0.0446
0.6343 0.2069 -0.0402
0.6855 0.2069 -0.0356
0.7346 0.2069 -0.0308
0.7809 0.2069 -0.0261
0.824 0.2069 -0.0214
0.8632 0.2069 -0.017
0.8982 0.2069 -0.0129
0.9285 0.2069 -0.0092
0.9539 0.2069 -0.006
0.9739 0.2069 -0.0035
0.9883 0.2069 -0.0016
0.9971 0.2069 -0.0004
1.0 0.2069 0.0
1.0 0.3103 0.0
0.9971 0.3103 0.0003
0.9883 0.3103 0.0012
0.9738 0.3103 0.0027
0.9537 0.3103 0.0048
0.9283 0.3103 0.0072
0.8979 0.3103 0.0101
0.8628 0.3103 0.0132
0.8234 0.3103 0.0166
0.7803 0.3103 0.02
0.7338 0.3103 0.0235
0.6846 0.3103 0.0269
0.6333 0.3103 0.0301
0.5804 0.3103 0.033
0.5265 0.3103 0.0356
0.4723 0.3103 0.0377
0.4185 0.3103 0.0392
0.3656 0.3103 0.0399
0.3143 0.3103 0.0399
0.2651 0.3103 0.039
0.2188 0.3103 0.0372
0.1757 0.3103 0.0344
0.1365 0.3103 0.0307
0.1015 0.3103 0.0261
0.0712 0.3103 0.0207
0.0459 0.3103 0.0146
0.026 0.3103 0.008
0.0116 0.3103 0.0008
0.0029 0.3103 -0.0068
0.0001 0.3103 -0.0147
0.0032 0.3103 -0.0225
0.012 0.3103 -0.0298
0.0266 0.3103 -0.0365
0.0467 0.3103 -0.0426
0.0722 0.3103 -0.048
0.1026 0.3103 -0.0525
0.1377 0.3103 -0.056
0.1771 0.3103 -0.0586
0.2202 0.3103 -0.0601
0.2666 0.3103 -0.0605
0.3157 0.3103 -0.06
0.367 0.3103 -0.0585
0.4199 0.3103 -0.0562
0.4737 0.3103 -0.0531
0.5277 0.3103 -0.0495
0.5815 0.3103 -0.0453
0.6343 0.3103 -0.0408
0.6856 0.3103 -0.0361
0.7346 0.3103 -0.0313
0.781 0.3103 -0.0265
0.824 0.3103 -0.0217
0.8632 0.3103 -0.0172
0.8982 0.3103 -0.0131
0.9286 0.3103 -0.0093
0.9539 0.3103 -0.0061
0.9739 0.3103 -0.0035
0.9883 0.3103 -0.0016
0.9971 0.3103 -0.0004
1.0 0.3103 0.0
1.0 0.4138 0.0
0.9971 0.4138 0.0003
0.9883 0.4138 0.0012
0.9738 0.4138 0.0027
0.9537 0.4138 0.0047
0.9283 0.4138 0.0071
0.8979 0.4138 0.01
0.8628 0.4138 0.0131
0.8234 0.4138 0.0164
0.7803 0.4138 0.0198
0.7338 0.4138 0.0232
0.6846 0.4138 0.0265
0.6332 0.4138 0.0297
0.5803 0.4138 0.0325
0.5265 0.4138 0.035
0.4723 0.4138 0.0371
0.4184 0.4138 0.0385
0.3655 0.4138 0.0392
0.3142 0.4138 0.0391
0.2651 0.4138 0.0381
0.2187 0.4138 0.0363
0.1757 0.4138 0.0334
0.1364 0.4138 0.0297
0.1014 0.4138 0.0251
0.0711 0.4138 0.0196
0.0459 0.4138 0.0135
0.0259 0.4138 0.0068
0.0116 0.4138 -0.0004
0.0029 0.4138 -0.0079
0.0001 0.4138 -0.0158
0.0032 0.4138 -0.0236
0.0121 0.4138 -0.0309
0.0266 0.4138 -0.0377
0.0468 0.4138 -0.0437
0.0722 0.4138 -0.0491
0.1027 0.4138 -0.0535
0.1378 0.4138 -0.057
0.1771 0.4138 -0.0595
0.2203 0.4138 -0.061
0.2667 0.4138 -0.0614
0.3158 0.4138 -0.0608
0.3671 0.4138 -0.0593
0.4199 0.4138 -0.0569
0.4737 0.4138 -0.0538
0.5278 0.4138 -0.05
0.5816 0.4138 -0.0458
0.6344 0.4138 -0.0413
0.6856 0.4138 -0.0365
0.7347 0.4138 -0.0316
0.781 0.4138 -0.0267
0.824 0.4138 -0.0219
0.8633 0.4138 -0.0174
0.8982 0.4138 -0.0132
0.9286 0.4138 -0.0094
0.9539 0.4138 -0.0062
0.9739 0.4138 -0.0035
0.9883 0.4138 -0.0016
0.9971 0.4138 -0.0004
1.0 0.4138 0.0
1.0 0.5172 0.0
0.9971 0.5172 0.0003
0.9883 0.5172 0.0012
0.9738 0.5172 0.0027
0.9537 0.5172 0.0047
0.9283 0.5172 0.0071
0.8979 0.5172 0.0099
0.8628 0.5172 0.013
0.8234 0.5172 0.0162
0.7802 0.5172 0.0196
0.7338 0.5172 0.0229
0.6846 0.5172 0.0262
0.6332 0.5172 0.0294
0.5803 0.5172 0.0322
0.5264 0.5172 0.0346
0.4722 0.5172 0.0366
0.4184 0.5172 0.038
0.3655 0.5172 0.0386
0.3142 0.5172 0.0385
0.2651 0.5172 0.0375
0.2187 0.5172 0.0356
0.1756 0.5172 0.0327
0.1364 0.5172 0.0289
0.1014 0.5172 0.0243
0.0711 0.5172 0.0189
0.0459 0.5172 0.0127
0.0259 0.5172 0.006
0.0116 0.5172 -0.0012
0.0029 0.5172 -0.0088
0.0001 0.5172 -0.0167
0.0032 0.5172 -0.0245
0.0121 0.5172 -0.0318
0.0267 0.5172 -0.0385
0.0468 0.5172 -0.0446
0.0723 0.5172 -0.0499
0.1027 0.5172 -0.0543
0.1378 0.5172 -0.0578
0.1772 0.5172 -0.0602
0.2203 0.5172 -0.0617
0.2667 0.5172 -0.062
0.3159 0.5172 -0.0614
0.3671 0.5172 -0.0598
0.42 0.5172 -0.0574
0.4738 0.5172 -0.0542
0.5278 0.5172 -0.0504
0.5816 0.5172 -0.0462
0.6344 0.5172 -0.0416
0.6856 0.5172 -0.0368
0.7347 0.5172 -0.0318
0.781 0.5172 -0.0269
0.824 0.5172 -0.0221
0.8633 0.5172 -0.0175
0.8983 0.5172 -0.0133
0.9286 0.5172 -0.0095
0.9539 0.5172 -0.0062
0.9739 0.5172 -0.0036
0.9883 0.5172 -0.0016
0.9971 0.5172 -0.0004
1.0 0.5172 0.0
1.0 0.6207 0.0
0.9971 0.6207 0.0003
0.9883 0.6207 0.0012
0.9738 0.6207 0.0027
0.9537 0.6207 0.0046
0.9283 0.6207 0.007
0.8979 0.6207 0.0098
0.8628 0.6207 0.0129
0.8234 0.6207 0.0161
0.7802 0.6207 0.0194
0.7338 0.6207 0.0228
0.6846 0.6207 0.026
0.6332 0.6207 0.0291
0.5803 0.6207 0.0319
0.5264 0.6207 0.0343
0.4722 0.6207 0.0363
0.4184 0.6207 0.0376
0.3655 0.6207 0.0382
0.3142 0.6207 0.0381
0.265 0.6207 0.037
0.2187 0.6207 0.0351
0.1756 0.6207 0.0322
0.1364 0.6207 0.0284
0.1014 0.6207 0.0237
0.0711 0.6207 0.0183
0.0459 0.6207 0.0121
0.0259 0.6207 0.0054
0.0116 0.6207 -0.0018
0.0029 0.6207 -0.0094
0.0002 0.6207 -0.0173
0.0032 0.6207 -0.0251
0.0121 0.6207 -0.0324
0.0267 0.6207 -0.0391
0.0469 0.6207 -0.0452
0.0723 0.6207 -0.0504
0.1028 0.6207 -0.0549
0.1379 0.6207 -0.0583
0.1772 0.6207 -0.0608
0.2204 0.6207 -0.0622
0.2668 0.6207 -0.0625
0.3159 0.6207 -0.0618
0.3672 0.6207 -0.0602
0.42 0.6207 -0.0577
0.4738 0.6207 -0.0545
0.5279 0.6207 -0.0507
0.5816 0.6207 -0.0464
0.6344 0.6207 -0.0418
0.6857 0.6207 -0.037
0.7347 0.6207 -0.032
0.781 0.6207 -0.027
0.8241 0.6207 -0.0222
0.8633 0.6207 -0.0176
0.8983 0.6207 -0.0133
0.9286 0.6207 -0.0095
0.9539 0.6207 -0.0062
0.9739 0.6207 -0.0036
0.9883 0.6207 -0.0016
0.9971 0.6207 -0.0004
1.0 0.6207 0.0
1.0 0.7241 0.0
0.9971 0.7241 0.0003
0.9883 0.7241 0.0012
0.9738 0.7241 0.0027
0.9537 0.7241 0.0046
0.9283 0.7241 0.007
0.8979 0.7241 0.0098
0.8627 0.7241 0.0128
0.8234 0.7241 0.016
0.7802 0.7241 0.0193
0.7338 0.7241 0.0226
0.6846 0.7241 0.0259
0.6332 0.7241 0.0289
0.5803 0.7241 0.0317
0.5264 0.7241 0.0341
0.4722 0.7241 0.036
0.4184 0.7241 0.0373
0.3655 0.7241 0.0379
0.3141 0.7241 0.0378
0.265 0.7241 0.0367
0.2187 0.7241 0.0347
0.1756 0.7241 0.0318
0.1364 0.7241 0.028
0.1014 0.7241 0.0233
0.0711 0.7241 0.0178
0.0459 0.7241 0.0116
0.0259 0.7241 0.0049
0.0116 0.7241 -0.0023
0.0029 0.7241 -0.0099
0.0002 0.7241 -0.0178
0.0032 0.7241 -0.0256
0.0121 0.7241 -0.0329
0.0267 0.7241 -0.0396
0.0469 0.7241 -0.0456
0.0723 0.7241 -0.0509
0.1028 0.7241 -0.0553
0.1379 0.7241 -0.0587
0.1773 0.7241 -0.0612
0.2204 0.7241 -0.0625
0.2668 0.7241 -0.0628
0.3159 0.7241 -0.0622
0.3672 0.7241 -0.0605
0.4201 0.7241 -0.058
[...]
POINT_DATA 2010
SCALARS cp1 float
LOOKUP_TABLE default
0.426768
0.339335
0.220612
0.152492
0.0956914
0.0414438
-0.00733725
-0.0527775
-0.0974969
-0.138591
-0.182347
-0.228624
-0.276609
-0.326476
-0.377195
-0.434507
-0.495257
-0.560116
-0.636422
-0.715545
-0.79855
-0.89913
-1.01501
-1.15134
-1.33295
-1.57991
-1.96979
-2.85821
-3.94155
-1.69183
1.39364
1.41019
0.886051
0.605847
0.423382
0.293924
0.196717
0.129465
0.0838874
0.0482327
0.0260379
0.0154982
0.00900635
0.0070583
0.00921579
0.0125566
0.0176849
0.0252659
0.0364663
0.0502744
0.0636525
0.0804014
0.100652
0.126213
0.158947
0.197337
0.247312
0.341042
0.412077
0.436345
0.357596
0.240448
0.160703
0.0998503
0.0439587
-0.00656831
-0.0526912
-0.0973621
-0.139738
-0.183539
-0.229548
-0.278044
-0.328843
-0.381257
-0.439134
-0.501285
-0.568087
-0.644964
-0.727797
-0.816267
-0.920791
-1.04503
-1.19411
-1.38828
-1.66309
-2.08479
-2.75271
-2.98497
-0.939077
1.30936
1.2548
0.864355
0.599649
0.418454
0.291599
0.19827
0.132167
0.0854628
0.0510496
0.0293069
0.0174164
0.010697
0.00831802
0.00950075
0.0134457
0.0190599
0.0266592
0.0374291
0.0505757
0.0653682
0.0823476
0.102709
0.12944
0.162509
0.202748
0.260381
0.352777
0.41747
0.43786
0.354442
0.235304
0.157227
0.0973921
0.0422364
-0.00824915
-0.0542089
-0.0985716
-0.141288
-0.184689
-0.230651
-0.278797
-0.329269
-0.382144
-0.441151
-0.504165
-0.570222
-0.646805
-0.730658
-0.820266
-0.92334
-1.04713
-1.19378
-1.37728
-1.6377
-2.02884
-2.69753
-3.1768
-1.19747
1.31361
1.28337
0.846158
0.57677
0.399585
0.277823
0.190192
0.126512
0.0809538
0.0487581
0.0283648
0.0163504
0.00985679
0.00767281
0.00858925
0.0133405
0.0195902
0.026966
0.0369798
0.0492912
0.0652819
0.0824397
0.101733
0.128724
0.161217
0.198663
0.253833
0.350458
0.422454
0.431011
0.350797
0.236438
0.157956
0.0961795
0.0429013
-0.00762736
-0.0542923
-0.0986576
-0.142086
-0.185701
-0.231654
-0.279232
-0.328059
-0.381345
-0.441959
-0.505166
-0.570727
-0.645104
-0.728484
-0.819122
-0.920023
-1.04051
-1.1861
-1.36438
-1.62115
-2.01366
-2.68031
-3.15242
-1.05314
1.36075
1.27168
0.83906
0.573716
0.394611
0.272128
0.186318
0.122566
0.0771063
0.046919
0.0269683
0.0142881
0.00798403
0.00641158
0.00806662
0.0130264
0.0192569
0.0268366
0.0364029
0.048374
0.0651696
0.0825776
0.10156
0.128526
0.160775
0.199748
0.255302
0.350969
0.423156
0.428497
0.349521
0.236852
0.157264
0.0951759
0.043573
-0.00757374
-0.0549873
-0.0985781
-0.142321
-0.185586
-0.231159
-0.279816
-0.327757
-0.380149
-0.441393
-0.504671
-0.570196
-0.643556
-0.725754
-0.817257
-0.916287
-1.03452
-1.18164
-1.36059
-1.61049
-1.99916
-2.65818
-3.1315
-1.02831
1.35796
1.26523
0.833647
0.567747
0.390556
0.267994
0.182758
0.119571
0.0741335
0.0447792
0.0251045
0.0122089
0.00603841
0.00514233
0.00801454
0.0123866
0.0177253
0.0257539
0.0363084
0.0487528
0.0647402
0.0819991
0.101453
0.12778
0.159762
0.200657
0.258008
0.35253
0.422659
0.428645
0.349176
0.234988
0.155308
0.0950687
0.0438743
-0.00780776
-0.0555357
-0.0983334
-0.141711
-0.184923
-0.230056
-0.279401
-0.327868
-0.379547
-0.440134
-0.502794
-0.568288
-0.642174
-0.723307
-0.813743
-0.91268
-1.02796
-1.17494
-1.35656
-1.60217
-1.98497
-2.64261
-3.09282
-0.981416
1.36385
1.25996
0.8276
0.56259
0.386249
0.264642
0.179023
0.116348
0.0713173
0.0423798
0.0229655
0.0104343
0.00469242
0.00402553
0.00709321
0.0114446
0.0164635
0.0243467
0.036079
0.0491032
0.0635679
0.0810694
0.101808
0.127907
0.159726
0.199632
0.25841
0.354782
0.42354
0.428708
0.34872
0.233013
0.15388
0.0956827
0.0442059
-0.00778327
-0.0551758
-0.0976633
-0.14045
-0.184649
-0.229872
-0.277686
-0.326886
-0.379265
-0.438456
-0.499956
-0.565956
-0.64109
-0.720888
-0.809072
-0.909284
-1.0239
-1.16777
-1.34855
-1.59215
-1.97404
-2.63339
-3.05942
-0.948822
1.35896
1.255
0.822848
0.557676
0.383133
0.261084
0.175136
0.112603
0.0686016
0.0402409
0.0203394
0.00859589
0.00382571
0.00256226
0.00512703
0.0104978
0.0158436
0.0231599
0.0353998
0.0490277
0.0624092
0.0799624
0.102085
0.127949
0.159359
0.199234
0.259056
0.355966
0.423541
0.428448
0.347602
0.232365
0.154979
0.0958573
0.0428013
-0.00772955
-0.0536802
-0.0965573
-0.139228
-0.183772
-0.229809
-0.276299
-0.32553
-0.378413
-0.436001
-0.496971
-0.563958
-0.639546
-0.717721
-0.803886
-0.904978
-1.02129
-1.16248
-1.34025
-1.58266
-1.96172
-2.61525
-3.02245
-0.917868
1.35966
1.25007
0.817023
0.553565
0.379821
0.257888
0.17133
0.108749
0.0667027
0.0384849
0.0174915
0.00631943
0.00244123
0.000703009
0.00303731
0.00909251
0.015065
0.0227785
0.034909
0.0482467
0.0611946
0.0792318
0.102114
0.126792
0.157674
0.200063
0.261056
0.356321
0.42323
0.427675
0.345687
0.232616
0.157985
0.0954661
0.0406309
-0.00684662
-0.0515349
-0.0955542
-0.138537
-0.18269
-0.229146
-0.275157
-0.323884
-0.376761
-0.433607
-0.49447
-0.561848
-0.636171
-0.713659
-0.799784
-0.900701
-1.0166
-1.15626
-1.33438
-1.57755
-1.9485
-2.58696
-2.98564
-0.893255
1.36265
1.24441
0.81144
0.548643
0.375833
0.254551
0.167447
0.10549
0.0640582
0.0360357
0.0153234
0.00422561
0.00022927
-0.00149163
0.0012261
0.00744479
0.0142198
0.0225872
0.0338364
0.0466291
0.0602393
0.0788286
0.101587
0.126222
0.157139
0.200577
0.261828
0.355949
0.422919
0.427389
0.34454
0.232605
0.159245
0.0955929
0.0411996
-0.00569455
-0.0509675
-0.0953365
-0.13809
-0.181745
-0.227639
-0.27309
-0.321298
-0.37489
-0.431497
-0.491917
-0.559245
-0.631794
-0.709048
-0.796669
-0.896934
-1.01043
-1.14784
-1.32727
-1.56977
-1.93507
-2.56166
-2.95266
-0.865778
1.36968
1.23827
0.805127
0.543486
0.37033
0.250368
0.163785
0.102834
0.0606813
0.0326683
0.0132904
0.00241826
-0.00249858
-0.00408149
-0.000517204
0.00618649
0.0133724
0.0213707
0.0320298
0.045376
0.0598689
0.0778068
0.10021
0.126697
0.158207
0.200743
0.261687
0.355575
0.422689
0.427637
0.344622
0.232507
0.158578
0.095942
0.0431556
-0.00500043
-0.0510026
-0.0948964
-0.137283
-0.1799
-0.225337
-0.270794
-0.319028
-0.372664
-0.428612
-0.489377
-0.556352
-0.627503
-0.704851
-0.792158
-0.891479
-1.00339
-1.13947
-1.31831
-1.55905
-1.92097
-2.54051
-2.92659
-0.83773
1.38144
1.23264
0.798313
0.537706
0.365564
0.245731
0.159874
0.0998257
0.0574636
0.0290391
0.0105554
7.06756e-05
-0.00534906
-0.00628603
-0.00216016
0.00472542
0.0117854
0.0194314
0.0305272
0.0444195
0.0590457
0.0769764
0.0995898
0.126826
0.158627
0.200772
0.261694
0.355603
0.4226
0.427585
0.344525
0.231737
0.158102
0.0969619
0.0441076
-0.0043599
-0.0496557
-0.0935353
-0.135921
-0.17788
-0.223022
-0.268925
-0.317281
-0.3698
-0.425174
-0.486789
-0.552589
-0.622819
-0.700986
-0.787286
-0.88439
-0.995604
-1.13157
-1.30889
-1.54746
-1.90601
-2.51796
-2.89335
-0.804365
1.38757
1.22571
0.791471
0.531333
0.360493
0.240474
0.1554
0.096105
0.0538907
0.0254985
0.00742371
-0.00300989
-0.00781388
-0.00799662
-0.0040876
0.00244694
0.00955342
0.0177582
0.0293285
0.0432621
0.058044
0.0764731
0.0994059
0.12578
0.158069
0.201162
0.261557
0.355516
0.4225
0.427402
0.344123
0.230352
0.158363
0.0991683
0.0450612
-0.00301285
-0.0481188
-0.0923896
-0.134072
-0.17624
-0.220957
-0.266833
-0.31528
-0.366153
-0.421292
-0.483871
-0.548443
-0.617001
-0.696061
-0.783078
-0.877595
-0.987841
-1.12384
-1.29762
-1.53326
-1.88887
-2.49193
-2.85284
-0.770122
1.39169
1.21814
0.784681
0.525167
0.354091
0.234874
0.15086
0.0918367
0.0499528
0.0222922
0.00386014
-0.00679264
-0.0101732
-0.00997059
-0.00666836
-0.000265918
0.00756042
0.0165499
0.0279269
0.0418834
0.0569151
0.0755277
0.0986943
0.124032
0.157522
0.202167
0.261468
0.355418
0.422511
0.427504
0.344171
0.229782
0.158936
0.100917
0.0459671
-0.0019881
-0.0469694
-0.0909395
-0.132324
-0.174814
-0.218587
-0.263837
-0.31206
-0.362174
-0.417201
-0.480128
-0.54416
-0.61163
-0.690525
-0.777384
-0.870187
-0.979992
-1.11519
-1.28574
-1.51972
-1.87112
-2.46038
-2.80276
-0.731411
1.39684
1.20972
0.777794
0.518967
0.347292
0.228898
0.145715
0.0868627
0.0458954
0.018611
3.18043e-05
-0.0104652
-0.0132854
-0.0128246
-0.0091593
-0.00252553
0.00563153
0.0150318
0.0261703
0.0399003
0.0552976
0.0746595
0.0976216
0.12273
0.157663
0.202774
0.261322
0.355362
0.422554
0.42769
0.344412
0.229956
0.159418
0.101607
0.0461256
-0.00163109
-0.0450997
-0.0883274
-0.13038
-0.172893
-0.216068
-0.260541
-0.307618
-0.357821
-0.413735
-0.475623
-0.539161
-0.606979
-0.684328
-0.7695
-0.862102
-0.970891
-1.10361
-1.27347
-1.50713
-1.85207
-2.42766
-2.74567
-0.682193
1.40552
1.20156
0.768879
0.509691
0.340478
0.22292
0.139941
0.0815422
0.0409997
0.0138381
-0.00369104
-0.0137068
-0.0171742
-0.0163498
-0.0112174
-0.00460182
0.00280314
0.012569
0.0241639
0.038322
0.0543636
0.073643
0.0955708
0.121751
0.158063
0.202741
0.261176
0.355159
0.422505
0.42783
0.344665
0.230459
0.15984
0.101967
0.0463588
-0.000795574
-0.042697
-0.0858686
-0.128198
-0.169933
-0.212559
-0.256998
-0.303502
-0.353832
-0.410315
-0.470182
-0.532724
-0.601449
-0.676978
-0.760817
-0.854059
-0.961594
-1.09167
-1.2588
-1.48875
-1.82963
-2.3992
-2.70188
-0.628237
1.40755
1.19234
0.758237
0.49956
0.332456
0.216641
0.133994
0.0755342
0.0352624
0.0089405
-0.00747819
-0.0172797
-0.0212082
-0.0200698
-0.014082
-0.00757104
-0.000154252
0.0101547
0.0221255
0.0368776
0.0530203
0.0718378
0.0942904
0.121289
0.156616
0.202027
0.261981
0.35518
0.422532
0.427921
0.344903
0.230917
0.159708
0.102103
0.0482254
0.00136176
-0.0411326
-0.0839138
-0.125412
-0.166711
-0.208302
-0.252425
-0.300139
-0.350516
-0.40514
-0.463171
-0.525443
-0.594566
-0.669045
-0.752384
-0.845305
-0.951196
-1.08061
-1.24268
-1.46593
-1.8035
-2.3669
-2.64921
-0.595131
1.41406
1.18148
0.746948
0.489206
0.323314
0.20878
0.126963
0.0692295
0.0295253
0.00360924
-0.012271
-0.0213608
-0.0250925
-0.0239514
-0.0180838
-0.0113299
-0.00266531
0.00807343
0.019806
0.0346413
0.0505411
0.0696336
0.0942498
0.12127
0.153556
0.200821
0.263533
0.355509
0.422683
0.427665
0.344762
0.230811
0.158974
0.102369
0.0516365
0.00435245
-0.0402197
-0.0814535
-0.121783
-0.163708
-0.204576
-0.247569
-0.295889
-0.345611
-0.3979
-0.455899
-0.518559
-0.586035
-0.660333
-0.744297
-0.83528
-0.938332
-1.06766
-1.22643
-1.44521
-1.77702
-2.32301
-2.58201
-0.529483
1.41834
1.16967
0.735216
0.478719
0.313908
0.199825
0.118954
0.06258
0.0233068
-0.00284149
-0.0182264
-0.0262591
-0.0293274
-0.027732
-0.0220374
-0.0152407
-0.00596776
0.00495329
0.0170746
0.0323345
0.048804
0.0678832
0.0927439
0.120562
0.152089
0.199891
0.263965
0.355382
0.422149
0.427662
0.344924
0.231081
0.158917
0.102929
0.0537873
0.00641719
-0.0382722
-0.0784411
-0.11831
-0.159728
-0.20012
-0.242673
-0.290173
-0.338807
-0.390522
-0.448557
-0.510718
-0.577041
-0.651291
-0.734177
-0.822649
-0.92395
-1.05202
-1.20971
-1.42374
-1.74785
-2.27463
-2.4994
-0.478994
1.42719
1.15601
0.721762
0.46767
0.303822
0.18989
0.110038
0.0551159
0.0158218
-0.00988943
-0.0244287
-0.0322798
-0.034382
-0.0316224
-0.0263162
-0.0193056
-0.0100365
0.000897968
0.0144055
0.0302297
0.0471093
0.0660292
0.0898373
0.118906
0.151823
0.198317
0.263181
0.356325
0.422138
0.427979
0.345566
0.231951
0.159676
0.103608
0.0543647
0.00775622
-0.0349535
-0.0749557
-0.114984
-0.154523
-0.194493
-0.237135
-0.283407
-0.331638
-0.383159
-0.439879
-0.501083
-0.568219
-0.641658
-0.720755
-0.807362
-0.908772
-1.03581
-1.19107
-1.39654
-1.71358
-2.22625
-2.41641
-0.411426
1.42673
1.13983
0.705411
0.454987
0.293294
0.178711
0.0999777
0.0462639
0.00756727
-0.0171651
-0.0306319
-0.0385361
-0.0400544
-0.0367074
-0.0316851
-0.0236329
-0.0142468
-0.00341941
0.0116638
0.0277515
0.0441072
0.0636101
0.0876027
0.116869
0.150695
0.195788
0.262134
0.358916
0.423697
0.428826
0.346238
0.232404
0.160265
0.104294
0.0551813
0.01008
-0.0309929
-0.0713396
-0.111215
-0.148716
-0.188423
-0.231025
-0.275677
-0.323323
-0.374362
-0.430514
-0.490645
-0.556765
-0.628985
-0.705913
-0.79206
-0.892673
-1.01646
-1.16806
-1.3671
-1.67506
-2.17098
-2.33064
-0.343319
1.4381
1.12188
0.688112
0.439134
0.280133
0.167476
0.0887185
0.0357581
-0.0011156
-0.0247933
-0.0378122
-0.0452601
-0.0463789
-0.0431016
-0.0376659
-0.0284028
-0.0185546
-0.00773041
0.00778929
0.0237794
0.04046
0.0615353
0.0861822
0.115031
0.149577
0.193309
0.258552
0.359358
0.426898
0.429756
0.346195
0.231637
0.160258
0.10591
0.05752
0.0130458
-0.0273104
-0.0670786
-0.105998
-0.142387
-0.182217
-0.224606
-0.267085
-0.313287
-0.363818
-0.419398
-0.478498
-0.542776
-0.613615
-0.690549
-0.77611
-0.873844
-0.993199
-1.14118
-1.33728
-1.63198
-2.10385
-2.24117
-0.277826
1.43844
1.10205
0.668495
0.421162
0.264174
0.154217
0.0766281
0.0245741
-0.01087
-0.0332079
-0.0461931
-0.0531889
-0.053315
-0.049966
-0.0441698
-0.0340176
-0.0234138
-0.0120068
0.00320392
0.0186173
0.0362082
0.0587639
0.0840153
0.113496
0.149155
0.191002
0.252489
0.357206
0.43141
0.426585
0.34435
0.232529
0.162422
0.108663
0.0606033
0.016048
-0.0239713
-0.0623994
-0.099583
-0.135596
-0.175656
-0.216581
-0.256696
-0.301855
-0.351844
-0.405698
-0.464168
-0.527835
-0.596593
-0.672525
-0.756099
-0.850919
-0.967761
-1.11222
-1.30194
-1.58398
-2.03187
-2.13726
-0.194224
1.44279
1.07683
0.646733
0.401291
0.246112
0.138057
0.0630604
0.0123512
-0.0221413
-0.0429797
-0.0552445
-0.0618708
-0.0612644
-0.0573706
-0.0512079
-0.0404932
-0.0292045
-0.0168597
-0.00187901
0.0132152
0.0316228
0.0542407
0.0802263
0.110766
0.146964
0.18935
0.249491
0.355307
0.43288
0.420156
0.341768
0.23663
0.166997
0.109772
0.0617152
0.0195553
-0.019287
-0.0575168
-0.0932107
-0.128365
-0.167313
-0.205732
-0.244431
-0.28921
-0.33802
-0.390335
-0.447506
-0.509898
-0.57665
-0.650153
-0.732109
-0.825118
-0.938823
-1.07773
-1.2601
-1.53113
-1.95879
-2.02538
-0.104067
1.4433
1.04789
0.620565
0.379125
0.225243
0.120204
0.0475204
-0.00115872
-0.0342854
-0.0544229
-0.0657108
-0.0714347
-0.0704296
-0.0655221
-0.0585087
-0.0475464
-0.0357
-0.0231122
-0.0086976
0.00723703
0.0270458
0.0492943
0.0754132
0.105878
0.142064
0.187685
0.249283
0.353617
0.430729
0.415673
0.339214
0.238003
0.168176
0.109064
0.0627444
0.0233678
-0.014247
-0.0519178
-0.0864207
-0.119738
-0.156175
-0.192888
-0.231249
-0.274366
-0.321139
-0.372432
-0.427331
-0.48679
-0.552374
-0.624479
-0.704967
-0.796054
-0.904573
-1.03669
-1.21181
-1.47281
-1.8778
-1.88878
0.0057494
1.44594
1.01462
0.590209
0.352972
0.201568
0.10026
0.0300455
-0.016989
-0.0476991
-0.0673985
-0.0781235
-0.0819278
-0.0799412
-0.0743675
-0.0665803
-0.0555296
-0.0434044
-0.0312658
-0.0169555
0.000272747
0.0207966
0.043149
0.0696069
0.10055
0.137331
0.184743
0.247417
0.351187
0.428309
0.411816
0.33536
0.234517
0.165483
0.109184
0.0654146
0.0264028
-0.010447
-0.045534
-0.0776959
-0.109139
-0.143063
-0.178696
-0.215824
-0.256061
-0.300426
-0.350329
-0.402826
-0.459291
-0.523812
-0.593865
-0.671043
-0.75996
-0.864388
-0.988532
-1.15499
-1.4046
-1.77915
-1.72347
0.133117
1.44409
0.97492
0.555557
0.321939
0.173539
0.0763589
0.00946661
-0.0353983
-0.0634434
-0.0818955
-0.0916059
-0.0928091
-0.089481
-0.0839588
-0.0758003
-0.0646561
-0.052707
-0.0412127
-0.0264666
-0.00814363
0.0117479
0.0339052
0.0613191
0.0938071
0.132272
0.180254
0.243286
0.347667
0.425077
0.406891
0.329481
0.228487
0.161102
0.109086
0.0674214
0.0289216
-0.00568566
-0.0374326
-0.0669107
-0.0967264
-0.128192
-0.161388
-0.196674
-0.23403
-0.275222
-0.322637
-0.372708
-0.426284
-0.488479
-0.555038
-0.627752
-0.713846
-0.814036
-0.931472
-1.0887
-1.32017
-1.65741
-1.54149
0.262596
1.43222
0.92406
0.510263
0.283778
0.140199
0.0471286
-0.0147429
-0.0562349
-0.0820295
-0.097775
-0.105087
-0.103818
-0.0993722
-0.0942851
-0.085821
-0.0746341
-0.0634944
-0.0528057
-0.0384898
-0.0201704
-0.00120744
0.0205251
0.0487327
0.0829308
0.123247
0.172063
0.237541
0.344088
0.421556
0.413376
0.324864
0.224933
0.157346
0.108422
0.0705555
0.0353567
0.00335565
-0.0257737
-0.0529757
-0.0813198
-0.11024
-0.139996
-0.173063
-0.207263
-0.244366
-0.288624
-0.335011
-0.383941
-0.44219
-0.504692
-0.571879
-0.652987
-0.749096
-0.861931
-1.0066
-1.21193
-1.50644
-1.32483
0.415294
1.41331
0.85479
0.452031
0.234827
0.0983648
0.0114154
-0.0440172
-0.0803823
-0.101987
-0.113084
-0.117636
-0.115276
-0.110048
-0.104917
-0.0961755
-0.085848
-0.0763722
-0.0665164
-0.0542945
-0.0386011
-0.0210819
0.000404915
0.0296052
0.0659932
0.109242
0.162505
0.236102
0.350553
0.437293
0.242373
0.189171
0.133938
0.0958386
0.063466
0.036186
0.00926313
-0.0168925
-0.0402579
-0.0617025
-0.0849502
-0.108143
-0.131238
-0.157942
-0.185753
-0.216341
-0.25325
-0.290886
-0.330941
-0.379521
-0.43172
-0.487168
-0.555657
-0.640155
-0.739926
-0.864989
-1.03424
-1.2332
-0.948527
0.554259
1.28587
0.74777
0.360984
0.157196
0.0370255
-0.0360784
-0.0810079
-0.108754
-0.124454
-0.131768
-0.13479
-0.133055
-0.128708
-0.124052
-0.117012
-0.110505
-0.105079
-0.0990825
-0.0931178
-0.0858665
-0.0778009
-0.0680422
-0.0537489
-0.0349157
-0.00880977
0.0333427
0.1116
0.244169
0.342167
-0.0730565
-0.0679196
-0.0432267
-0.0190034
-0.0222776
-0.0332872
-0.048722
-0.0660941
-0.0799686
-0.0913281
-0.106659
-0.120997
-0.133743
-0.151498
-0.169918
-0.191353
-0.21861
-0.243294
-0.270414
-0.306628
-0.342435
-0.378232
-0.426688
-0.489492
-0.562857
-0.656088
-0.803768
-1.08708
-0.874207
0.869148
1.50003
0.556876
0.153967
0.0132415
-0.0622051
-0.104786
-0.129598
-0.14462
-0.152401
-0.156162
-0.158147
-0.156633
-0.153842
-0.150859
-0.146222
-0.14522
-0.14591
-0.146204
-0.149441
-0.153805
-0.161601
-0.174191
-0.188637
-0.20593
-0.220462
-0.218534
-0.158461
0.0111751
0.141097
-17.2694
-9.51135
-0.543849
-0.969014
-0.738283
-0.546212
-0.439468
-0.363421
-0.299512
-0.259907
-0.238924
-0.221418
-0.21241
-0.211891
-0.215377
-0.226463
-0.239333
-0.256015
-0.27915
-0.304255
-0.329547
-0.359236
-0.39469
-0.434288
-0.481171
-0.537391
-0.626893
-0.824635
-0.405255
0.316445
-24.8505
-16.2939
-6.08491
-3.81473
-2.42315
-1.65728
-1.21757
-0.937837
-0.747037
-0.621846
-0.532755
-0.464596
-0.416275
-0.382793
-0.3604
-0.347297
-0.340464
-0.339757
-0.344273
-0.351856
-0.362377
-0.377079
-0.395433
-0.418306
-0.447768
-0.485118
-0.539781
-0.623201
-0.317895
0.338837
-33.1797
-20.5211
-8.38887
-5.00145
-3.2487
-2.27918
-1.68738
-1.29454
-1.03145
-0.854278
-0.723323
-0.624138
-0.552732
-0.500266
-0.461346
-0.433635
-0.413713
-0.401192
-0.393528
-0.389585
-0.389579
-0.393282
-0.399578
-0.409614
-0.424003
-0.442416
-0.476395
-0.557558
-0.257086
0.401017
-28.435
-19.6365
-9.3213
-5.47657
-3.55274
-2.46642
-1.81029