# vtk DataFile Version 2.0
scalar
ASCII
DATASET UNSTRUCTURED_GRID
POINTS 2010 float
1.0 0.0 0.0
0.9971 0.0 0.0004
0.9883 0.0 0.0014
0.9738 0.0 0.0031
0.9538 0.0 0.0054
0.9284 0.0 0.0083
0.898 0.0 0.0116
0.863 0.0 0.0152
0.8237 0.0 0.0192
0.7806 0.0 0.0232
0.7342 0.0 0.0274
0.6851 0.0 0.0315
0.6338 0.0 0.0355
0.5809 0.0 0.0392
0.5271 0.0 0.0425
0.4729 0.0 0.0454
0.4191 0.0 0.0477
0.3662 0.0 0.0492
0.3149 0.0 0.05
0.2658 0.0 0.0498
0.2194 0.0 0.0486
0.1763 0.0 0.0465
0.137 0.0 0.0434
0.102 0.0 0.0393
0.0716 0.0 0.0344
0.0462 0.0 0.0286
0.0262 0.0 0.0222
0.0117 0.0 0.0153
0.0029 0.0 0.0079
0.0 0.0 0.0
0.0029 0.0 -0.0079
0.0117 0.0 -0.0153
0.0262 0.0 -0.0222
0.0462 0.0 -0.0286
0.0716 0.0 -0.0344
0.102 0.0 -0.0393
0.137 0.0 -0.0434
0.1763 0.0 -0.0465
0.2194 0.0 -0.0486
0.2658 0.0 -0.0498
0.3149 0.0 -0.05
0.3662 0.0 -0.0492
0.4191 0.0 -0.0477
0.4729 0.0 -0.0454
0.5271 0.0 -0.0425
0.5809 0.0 -0.0392
0.6338 0.0 -0.0355
0.6851 0.0 -0.0315
0.7342 0.0 -0.0274
0.7806 0.0 -0.0232
0.8237 0.0 -0.0192
0.863 0.0 -0.0152
0.898 0.0 -0.0116
0.9284 0.0 -0.0083
0.9538 0.0 -0.0054
0.9738 0.0 -0.0031
0.9883 0.0 -0.0014
0.9971 0.0 -0.0004
1.0 0.0 0.0
1.0 0.1034 0.0
0.9971 0.1034 0.0003
0.9883 0.1034 0.0011
0.9738 0.1034 0.0025
0.9537 0.1034 0.0043
0.9283 0.1034 0.0066
0.8978 0.1034 0.0092
0.8627 0.1034 0.012
0.8233 0.1034 0.015
0.7801 0.1034 0.0181
0.7336 0.1034 0.0211
0.6844 0.1034 0.0241
0.633 0.1034 0.0268
0.5801 0.1034 0.0293
0.5262 0.1034 0.0314
0.472 0.1034 0.033
0.4181 0.1034 0.034
0.3653 0.1034 0.0343
0.3139 0.1034 0.0338
0.2648 0.1034 0.0325
0.2185 0.1034 0.0303
0.1754 0.1034 0.0271
0.1362 0.1034 0.0231
0.1013 0.1034 0.0182
0.071 0.1034 0.0125
0.0458 0.1034 0.0062
0.0259 0.1034 -0.0007
0.0116 0.1034 -0.008
0.003 0.1034 -0.0156
0.0003 0.1034 -0.0235
0.0034 0.1034 -0.0313
0.0123 0.1034 -0.0385
0.027 0.1034 -0.0451
0.0471 0.1034 -0.0511
0.0726 0.1034 -0.0562
0.1031 0.1034 -0.0604
0.1383 0.1034 -0.0636
0.1776 0.1034 -0.0658
0.2208 0.1034 -0.067
0.2672 0.1034 -0.067
0.3163 0.1034 -0.0661
0.3676 0.1034 -0.0641
0.4204 0.1034 -0.0613
0.4741 0.1034 -0.0578
0.5282 0.1034 -0.0537
0.5819 0.1034 -0.049
0.6347 0.1034 -0.0441
0.6859 0.1034 -0.0389
0.7349 0.1034 -0.0336
0.7812 0.1034 -0.0284
0.8242 0.1034 -0.0233
0.8634 0.1034 -0.0185
0.8983 0.1034 -0.014
0.9286 0.1034 -0.01
0.9539 0.1034 -0.0065
0.9739 0.1034 -0.0037
0.9883 0.1034 -0.0017
0.9971 0.1034 -0.0004
1.0 0.1034 0.0
1.0 0.2069 0.0
0.9971 0.2069 0.0003
0.9883 0.2069 0.0011
0.9737 0.2069 0.0023
0.9536 0.2069 0.004
0.9282 0.2069 0.0061
0.8977 0.2069 0.0085
0.8626 0.2069 0.0111
0.8232 0.2069 0.0138
0.78 0.2069 0.0166
0.7335 0.2069 0.0194
0.6843 0.2069 0.022
0.6329 0.2069 0.0244
0.5799 0.2069 0.0265
0.526 0.2069 0.0283
0.4718 0.2069 0.0295
0.4179 0.2069 0.0301
0.365 0.2069 0.0301
0.3137 0.2069 0.0293
0.2646 0.2069 0.0276
0.2183 0.2069 0.0251
0.1753 0.2069 0.0216
0.1361 0.2069 0.0173
0.1012 0.2069 0.0122
0.071 0.2069 0.0063
0.0458 0.2069 -0.0002
0.0259 0.2069 -0.0071
0.0117 0.2069 -0.0145
0.0031 0.2069 -0.0222
0.0005 0.2069 -0.0302
0.0036 0.2069 -0.0379
0.0126 0.2069 -0.0451
0.0273 0.2069 -0.0516
0.0475 0.2069 -0.0574
0.073 0.2069 -0.0624
0.1035 0.2069 -0.0664
0.1387 0.2069 -0.0694
0.1781 0.2069 -0.0713
0.2212 0.2069 -0.0722
0.2676 0.2069 -0.0719
0.3168 0.2069 -0.0706
0.368 0.2069 -0.0683
0.4208 0.2069 -0.0652
0.4745 0.2069 -0.0613
0.5286 0.2069 -0.0568
0.5823 0.2069 -0.0518
0.635 0.2069 -0.0465
0.6862 0.2069 -0.041
0.7352 0.2069 -0.0354
0.7814 0.2069 -0.0298
0.8244 0.2069 -0.0245
0.8635 0.2069 -0.0194
0.8984 0.2069 -0.0147
0.9287 0.2069 -0.0104
0.954 0.2069 -0.0068
0.9739 0.2069 -0.0039
0.9884 0.2069 -0.0018
0.9971 0.2069 -0.0004
1.0 0.2069 0.0
1.0 0.3103 0.0
0.9971 0.3103 0.0003
0.9883 0.3103 0.001
0.9737 0.3103 0.0022
0.9536 0.3103 0.0039
0.9282 0.3103 0.0058
0.8977 0.3103 0.0081
0.8626 0.3103 0.0105
0.8231 0.3103 0.0131
0.7799 0.3103 0.0157
0.7334 0.3103 0.0183
0.6842 0.3103 0.0207
0.6328 0.3103 0.0229
0.5798 0.3103 0.0248
0.5259 0.3103 0.0263
0.4717 0.3103 0.0274
0.4178 0.3103 0.0278
0.3649 0.3103 0.0275
0.3136 0.3103 0.0265
0.2645 0.3103 0.0246
0.2182 0.3103 0.0219
0.1752 0.3103 0.0183
0.136 0.3103 0.0138
0.1011 0.3103 0.0085
0.0709 0.3103 0.0026
0.0458 0.3103 -0.004
0.026 0.3103 -0.0111
0.0117 0.3103 -0.0185
0.0032 0.3103 -0.0263
0.0006 0.3103 -0.0342
0.0038 0.3103 -0.042
0.0128 0.3103 -0.0491
0.0275 0.3103 -0.0556
0.0478 0.3103 -0.0613
0.0733 0.3103 -0.0661
0.1038 0.3103 -0.07
0.139 0.3103 -0.0729
0.1784 0.3103 -0.0746
0.2215 0.3103 -0.0753
0.2679 0.3103 -0.0749
0.317 0.3103 -0.0734
0.3683 0.3103 -0.0709
0.4211 0.3103 -0.0675
0.4748 0.3103 -0.0634
0.5288 0.3103 -0.0587
0.5825 0.3103 -0.0535
0.6352 0.3103 -0.048
0.6863 0.3103 -0.0423
0.7353 0.3103 -0.0365
0.7815 0.3103 -0.0307
0.8245 0.3103 -0.0252
0.8636 0.3103 -0.0199
0.8985 0.3103 -0.0151
0.9288 0.3103 -0.0107
0.954 0.3103 -0.007
0.9739 0.3103 -0.004
0.9884 0.3103 -0.0018
0.9971 0.3103 -0.0005
1.0 0.3103 0.0
1.0 0.4138 0.0
0.9971 0.4138 0.0002
0.9883 0.4138 0.001
0.9737 0.4138 0.0021
0.9536 0.4138 0.0037
0.9282 0.4138 0.0056
0.8977 0.4138 0.0078
0.8625 0.4138 0.0102
0.8231 0.4138 0.0126
0.7799 0.4138 0.0151
0.7334 0.4138 0.0175
0.6841 0.4138 0.0198
0.6327 0.4138 0.0219
0.5797 0.4138 0.0237
0.5258 0.4138 0.025
0.4716 0.4138 0.0259
0.4177 0.4138 0.0262
0.3648 0.4138 0.0258
0.3136 0.4138 0.0246
0.2645 0.4138 0.0226
0.2181 0.4138 0.0197
0.1752 0.4138 0.016
0.136 0.4138 0.0114
0.1011 0.4138 0.0061
0.0709 0.4138 0.0
0.0458 0.4138 -0.0066
0.026 0.4138 -0.0138
0.0118 0.4138 -0.0213
0.0033 0.4138 -0.029
0.0007 0.4138 -0.037
0.0039 0.4138 -0.0447
0.0129 0.4138 -0.0518
0.0277 0.4138 -0.0582
0.0479 0.4138 -0.0639
0.0735 0.4138 -0.0687
0.104 0.4138 -0.0725
0.1392 0.4138 -0.0752
0.1786 0.4138 -0.0769
0.2217 0.4138 -0.0775
0.2681 0.4138 -0.0769
0.3172 0.4138 -0.0753
0.3685 0.4138 -0.0726
0.4213 0.4138 -0.0691
0.475 0.4138 -0.0649
0.529 0.4138 -0.06
0.5826 0.4138 -0.0547
0.6353 0.4138 -0.049
0.6864 0.4138 -0.0431
0.7354 0.4138 -0.0372
0.7816 0.4138 -0.0313
0.8245 0.4138 -0.0257
0.8637 0.4138 -0.0203
0.8985 0.4138 -0.0153
0.9288 0.4138 -0.0109
0.954 0.4138 -0.0071
0.974 0.4138 -0.0041
0.9884 0.4138 -0.0018
0.9971 0.4138 -0.0005
1.0 0.4138 0.0
1.0 0.5172 0.0
0.9971 0.5172 0.0002
0.9883 0.5172 0.0009
0.9737 0.5172 0.0021
0.9536 0.5172 0.0036
0.9282 0.5172 0.0055
0.8977 0.5172 0.0076
0.8625 0.5172 0.0099
0.8231 0.5172 0.0123
0.7799 0.5172 0.0147
0.7333 0.5172 0.017
0.6841 0.5172 0.0192
0.6327 0.5172 0.0212
0.5797 0.5172 0.0228
0.5258 0.5172 0.0241
0.4716 0.5172 0.0249
0.4177 0.5172 0.025
0.3648 0.5172 0.0245
0.3135 0.5172 0.0232
0.2644 0.5172 0.0211
0.2181 0.5172 0.0182
0.1751 0.5172 0.0144
0.136 0.5172 0.0097
0.1011 0.5172 0.0043
0.0709 0.5172 -0.0018
0.0458 0.5172 -0.0085
0.026 0.5172 -0.0157
0.0118 0.5172 -0.0232
0.0034 0.5172 -0.031
0.0008 0.5172 -0.0389
0.004 0.5172 -0.0467
0.013 0.5172 -0.0538
0.0278 0.5172 -0.0602
0.0481 0.5172 -0.0658
0.0736 0.5172 -0.0705
0.1042 0.5172 -0.0742
0.1393 0.5172 -0.0769
0.1787 0.5172 -0.0785
0.2219 0.5172 -0.079
0.2683 0.5172 -0.0783
0.3174 0.5172 -0.0766
0.3686 0.5172 -0.0739
0.4214 0.5172 -0.0703
0.4751 0.5172 -0.0659
0.5291 0.5172 -0.0609
0.5827 0.5172 -0.0555
0.6354 0.5172 -0.0497
0.6865 0.5172 -0.0437
0.7355 0.5172 -0.0377
0.7817 0.5172 -0.0318
0.8246 0.5172 -0.026
0.8637 0.5172 -0.0206
0.8986 0.5172 -0.0155
0.9288 0.5172 -0.0111
0.954 0.5172 -0.0072
0.974 0.5172 -0.0041
0.9884 0.5172 -0.0019
0.9971 0.5172 -0.0005
1.0 0.5172 0.0
1.0 0.6207 0.0
0.9971 0.6207 0.0002
0.9883 0.6207 0.0009
0.9737 0.6207 0.0021
0.9536 0.6207 0.0036
0.9282 0.6207 0.0054
0.8977 0.6207 0.0075
0.8625 0.6207 0.0097
0.8231 0.6207 0.012
0.7798 0.6207 0.0144
0.7333 0.6207 0.0166
0.6841 0.6207 0.0187
0.6326 0.6207 0.0206
0.5796 0.6207 0.0222
0.5257 0.6207 0.0234
0.4715 0.6207 0.0241
0.4177 0.6207 0.0242
0.3648 0.6207 0.0236
0.3135 0.6207 0.0222
0.2644 0.6207 0.0201
0.2181 0.6207 0.017
0.1751 0.6207 0.0132
0.136 0.6207 0.0084
0.1011 0.6207 0.003
0.0709 0.6207 -0.0032
0.0458 0.6207 -0.0099
0.0261 0.6207 -0.0171
0.0119 0.6207 -0.0247
0.0034 0.6207 -0.0325
0.0008 0.6207 -0.0404
0.0041 0.6207 -0.0482
0.0131 0.6207 -0.0552
0.0279 0.6207 -0.0616
0.0481 0.6207 -0.0672
0.0737 0.6207 -0.0719
0.1043 0.6207 -0.0756
0.1395 0.6207 -0.0782
0.1789 0.6207 -0.0797
0.222 0.6207 -0.0801
0.2684 0.6207 -0.0794
0.3175 0.6207 -0.0776
0.3687 0.6207 -0.0748
0.4215 0.6207 -0.0711
0.4752 0.6207 -0.0667
0.5292 0.6207 -0.0616
0.5828 0.6207 -0.0561
0.6355 0.6207 -0.0502
0.6866 0.6207 -0.0442
0.7355 0.6207 -0.0381
0.7817 0.6207 -0.0321
0.8246 0.6207 -0.0263
0.8637 0.6207 -0.0208
0.8986 0.6207 -0.0157
0.9288 0.6207 -0.0112
0.954 0.6207 -0.0073
0.974 0.6207 -0.0042
0.9884 0.6207 -0.0019
0.9971 0.6207 -0.0005
1.0 0.6207 0.0
1.0 0.7241 0.0
0.9971 0.7241 0.0002
0.9883 0.7241 0.0009
0.9737 0.7241 0.002
0.9536 0.7241 0.0035
0.9281 0.7241 0.0053
0.8977 0.7241 0.0073
0.8625 0.7241 0.0095
0.823 0.7241 0.0118
0.7798 0.7241 0.0141
0.7333 0.7241 0.0163
0.684 0.7241 0.0184
0.6326 0.7241 0.0202
0.5796 0.7241 0.0217
0.5257 0.7241 0.0229
0.4715 0.7241 0.0235
0.4176 0.7241 0.0235
0.3647 0.7241 0.0229
0.3134 0.7241 0.0215
0.2644 0.7241 0.0192
0.2181 0.7241 0.0162
0.1751 0.7241 0.0122
0.1359 0.7241 0.0075
0.1011 0.7241 0.0019
0.0709 0.7241 -0.0043
0.0458 0.7241 -0.011
0.0261 0.7241 -0.0182
0.0119 0.7241 -0.0258
0.0035 0.7241 -0.0336
0.0009 0.7241 -0.0416
0.0041 0.7241 -0.0493
0.0132 0.7241 -0.0563
0.0279 0.7241 -0.0627
0.0482 0.7241 -0.0682
0.0738 0.7241 -0.0729
0.1044 0.7241 -0.0766
0.1395 0.7241 -0.0792
0.1789 0.7241 -0.0807
0.2221 0.7241 -0.081
0.2685 0.7241 -0.0802
0.3176 0.7241 -0.0784
0.3688 0.7241 -0.0755
0.4216 0.7241 -0.0718
[...]
POINT_DATA 2010
SCALARS cp1 float
LOOKUP_TABLE default
0.420988
0.33343
0.222178
0.159398
0.102711
0.0499835
0.00335017
-0.0380117
-0.0808512
-0.120359
-0.160076
-0.202595
-0.244451
-0.288207
-0.335189
-0.3861
-0.439901
-0.496285
-0.55827
-0.625274
-0.696595
-0.776343
-0.871199
-0.985041
-1.13163
-1.33832
-1.67257
-2.47916
-3.49708
-1.4721
1.2854
1.28538
0.800791
0.526242
0.339007
0.210997
0.119616
0.0543294
0.0104742
-0.0179219
-0.0350059
-0.0406552
-0.041269
-0.0396248
-0.0330595
-0.0243543
-0.0155751
-0.00371174
0.0115144
0.0263958
0.0417151
0.0620708
0.0857401
0.113583
0.15068
0.192049
0.240238
0.339056
0.416475
0.41976
0.341326
0.234304
0.16371
0.104411
0.0504015
0.00247549
-0.0397234
-0.0815514
-0.12282
-0.163946
-0.205734
-0.247855
-0.29306
-0.342425
-0.394381
-0.449475
-0.509457
-0.575234
-0.646927
-0.725773
-0.814128
-0.919126
-1.04604
-1.20556
-1.42888
-1.77184
-2.26455
-2.07258
-0.0995888
1.51918
1.11945
0.715721
0.471815
0.304829
0.190888
0.11054
0.0528194
0.0118494
-0.0147798
-0.0305579
-0.0371919
-0.0385809
-0.03712
-0.031261
-0.0226167
-0.0134454
-0.00193725
0.0127435
0.0281529
0.0441868
0.0638374
0.0880302
0.118032
0.155982
0.200491
0.260281
0.360525
0.433992
0.417786
0.333015
0.225207
0.158549
0.100133
0.0472536
-0.000201359
-0.0422442
-0.0830446
-0.124987
-0.166946
-0.208172
-0.249896
-0.295473
-0.345827
-0.398691
-0.453947
-0.515241
-0.582212
-0.654589
-0.735281
-0.823989
-0.926527
-1.04918
-1.19751
-1.39581
-1.6899
-2.16687
-2.26783
-0.501928
1.38706
1.12391
0.679037
0.430413
0.272364
0.167227
0.0947806
0.0434555
0.00610468
-0.0181715
-0.0319927
-0.0378571
-0.038773
-0.0369638
-0.0310366
-0.0222239
-0.0129856
-0.0020933
0.0125183
0.0286025
0.0442744
0.063083
0.0872262
0.117759
0.154894
0.19732
0.255759
0.357465
0.437352
0.426073
0.340922
0.230427
0.160359
0.100129
0.0479857
0.000551052
-0.042904
-0.0836174
-0.12532
-0.167148
-0.208393
-0.251183
-0.296556
-0.345743
-0.399399
-0.455278
-0.515782
-0.581752
-0.652152
-0.73099
-0.81758
-0.914166
-1.03126
-1.17788
-1.3703
-1.65748
-2.14008
-2.23904
-0.292262
1.45643
1.09745
0.664125
0.418314
0.262092
0.156976
0.0851507
0.0354548
-0.000382605
-0.0234671
-0.0360392
-0.0407297
-0.0407003
-0.038103
-0.0319663
-0.0234916
-0.0136384
-0.00250097
0.011615
0.0278773
0.0434904
0.0627084
0.0873718
0.117021
0.152294
0.194246
0.250203
0.343341
0.414958
0.440735
0.356648
0.239882
0.162872
0.102033
0.0492858
0.00103235
-0.0433585
-0.0844413
-0.125487
-0.165975
-0.207567
-0.251847
-0.29704
-0.34526
-0.398893
-0.45511
-0.514853
-0.579237
-0.648448
-0.726237
-0.81125
-0.905415
-1.02059
-1.16693
-1.35621
-1.63421
-2.09906
-2.19065
-0.220372
1.45385
1.08261
0.651786
0.408456
0.25258
0.149522
0.0790063
0.0290935
-0.00597587
-0.0275826
-0.039553
-0.0437317
-0.0432616
-0.0399665
-0.0333727
-0.0253519
-0.0146388
-0.00223144
0.0109736
0.026199
0.0420487
0.062203
0.0872595
0.115077
0.149273
0.191538
0.244331
0.332431
0.399692
0.443063
0.362882
0.244209
0.16243
0.102004
0.0494817
0.00120637
-0.0425801
-0.0844459
-0.125843
-0.165399
-0.20672
-0.251043
-0.295987
-0.344896
-0.39808
-0.453351
-0.512455
-0.575887
-0.644729
-0.721794
-0.805501
-0.897442
-1.01081
-1.15448
-1.34246
-1.61731
-2.0648
-2.13877
-0.185593
1.45441
1.06965
0.64072
0.398334
0.244641
0.142664
0.0732225
0.0235291
-0.0104307
-0.0308603
-0.0425687
-0.0469709
-0.0464142
-0.0421824
-0.0349026
-0.0267618
-0.0156266
-0.00265858
0.0101212
0.0245915
0.0409001
0.0615112
0.0864984
0.113407
0.148001
0.190396
0.241809
0.331888
0.402787
0.439697
0.361559
0.244092
0.161237
0.100451
0.0489294
0.00173764
-0.0413394
-0.0836744
-0.125727
-0.165176
-0.20612
-0.249466
-0.294427
-0.344124
-0.39649
-0.450843
-0.509983
-0.572986
-0.641018
-0.71687
-0.799435
-0.890723
-1.0011
-1.14103
-1.32921
-1.6007
-2.03307
-2.0869
-0.144674
1.45639
1.05935
0.631425
0.391226
0.237971
0.135736
0.066528
0.0183483
-0.013842
-0.0341176
-0.0458451
-0.0497519
-0.048929
-0.0445128
-0.0368736
-0.0279253
-0.0170482
-0.00452895
0.00922006
0.0240223
0.0402384
0.0612158
0.0857533
0.111883
0.146203
0.18979
0.243103
0.334653
0.407076
0.438113
0.358921
0.242139
0.161021
0.100217
0.0492869
0.00332015
-0.0406311
-0.083482
-0.12469
-0.164562
-0.205719
-0.248192
-0.293283
-0.342293
-0.393455
-0.447809
-0.507597
-0.570721
-0.637461
-0.711693
-0.793026
-0.885219
-0.993254
-1.12799
-1.31394
-1.58541
-2.00919
-2.04896
-0.0973507
1.45487
1.04922
0.624038
0.384747
0.232185
0.129527
0.0608262
0.0133641
-0.0176979
-0.0375796
-0.0492144
-0.0524615
-0.051126
-0.0465996
-0.0390252
-0.0294541
-0.0189616
-0.00661476
0.00849986
0.0236483
0.0399151
0.0612333
0.0852853
0.110804
0.144619
0.18977
0.245512
0.336036
0.407327
0.437501
0.357291
0.240028
0.160392
0.100926
0.0502366
0.00392582
-0.0401766
-0.0828569
-0.123723
-0.163752
-0.20458
-0.246984
-0.29242
-0.339692
-0.389781
-0.444885
-0.50463
-0.567662
-0.634031
-0.706623
-0.786366
-0.87856
-0.986519
-1.11828
-1.29626
-1.56665
-1.98895
-2.01419
-0.0771262
1.45417
1.04015
0.614632
0.377593
0.225462
0.12429
0.0564334
0.0088797
-0.0218428
-0.0413746
-0.0528182
-0.0555188
-0.0535065
-0.0485422
-0.0410356
-0.0310004
-0.0203787
-0.0080808
0.00708116
0.0223477
0.0398556
0.0611301
0.0838515
0.110197
0.145359
0.191053
0.246665
0.335903
0.40627
0.437661
0.35699
0.238329
0.15918
0.102072
0.0509359
0.00311378
-0.03968
-0.0811245
-0.122566
-0.162717
-0.203192
-0.245392
-0.290618
-0.336929
-0.38655
-0.442625
-0.501744
-0.563415
-0.629237
-0.701353
-0.780827
-0.870968
-0.978041
-1.10966
-1.28287
-1.54754
-1.96802
-1.97868
-0.0433708
1.45378
1.02887
0.606043
0.370658
0.218929
0.118839
0.0521072
0.00490615
-0.0256634
-0.0452164
-0.0565
-0.0584316
-0.0556925
-0.0507397
-0.0433893
-0.0327978
-0.0211587
-0.00921775
0.00482644
0.0207439
0.0397841
0.0605179
0.0821917
0.11017
0.146691
0.191117
0.246798
0.337007
0.40623
0.438213
0.357141
0.237423
0.157989
0.102237
0.0518378
0.00309981
-0.0395741
-0.0795324
-0.120295
-0.160869
-0.202328
-0.24413
-0.287674
-0.334011
-0.384518
-0.440379
-0.498089
-0.557902
-0.623863
-0.696702
-0.775379
-0.863833
-0.969545
-1.10034
-1.27325
-1.53177
-1.94347
-1.94194
-0.00583308
1.45283
1.01962
0.595481
0.361584
0.213566
0.114406
0.0468632
0.000878342
-0.029711
-0.0491373
-0.0596836
-0.0612464
-0.0580476
-0.0531081
-0.0457721
-0.0352125
-0.0224347
-0.0102697
0.00295631
0.0197703
0.0392084
0.0590236
0.0816126
0.111203
0.146308
0.188488
0.246916
0.339503
0.407301
0.438466
0.356594
0.237618
0.159149
0.101913
0.0516781
0.0041939
-0.0392154
-0.0787112
-0.118019
-0.158765
-0.200789
-0.242505
-0.285166
-0.331488
-0.382544
-0.437025
-0.49291
-0.552379
-0.619785
-0.692121
-0.768289
-0.857012
-0.961847
-1.09016
-1.2635
-1.51707
-1.91528
-1.90514
0.0231743
1.45565
1.01247
0.58636
0.352816
0.208985
0.110037
0.0409918
-0.0037964
-0.0339267
-0.0529646
-0.0624088
-0.0641939
-0.0612954
-0.0555947
-0.0475179
-0.0375475
-0.0247777
-0.0115818
0.002077
0.0188902
0.037868
0.0577613
0.0814173
0.111237
0.144671
0.186979
0.248123
0.341053
0.407668
0.437583
0.354623
0.237534
0.162702
0.103268
0.0506991
0.00519849
-0.0381916
-0.0781748
-0.116466
-0.157201
-0.198217
-0.239635
-0.283335
-0.329441
-0.379368
-0.432482
-0.487518
-0.548142
-0.615708
-0.686192
-0.761985
-0.85048
-0.952112
-1.07865
-1.25147
-1.49985
-1.88767
-1.87056
0.0448436
1.45379
1.00066
0.577438
0.345253
0.202743
0.104308
0.0354194
-0.00854616
-0.0378402
-0.0566439
-0.0657177
-0.0674072
-0.0646827
-0.0581662
-0.0494254
-0.0396806
-0.0271479
-0.0129179
0.0014227
0.0171928
0.0360373
0.0573114
0.0807958
0.109649
0.143975
0.187921
0.249148
0.340937
0.407072
0.437069
0.353034
0.236124
0.164262
0.105499
0.0511872
0.00585255
-0.0371448
-0.0768416
-0.114608
-0.155781
-0.196196
-0.236551
-0.280699
-0.326524
-0.375122
-0.42762
-0.483126
-0.54483
-0.610539
-0.678622
-0.755955
-0.844108
-0.942463
-1.06635
-1.23678
-1.4833
-1.86072
-1.82142
0.0725402
1.4515
0.989959
0.567151
0.338145
0.194799
0.0967765
0.0298231
-0.0133434
-0.041899
-0.0605891
-0.0694691
-0.0706439
-0.0675044
-0.060768
-0.0520758
-0.0418065
-0.0292547
-0.014652
0.00014307
0.0152496
0.0345713
0.0566884
0.0796193
0.108824
0.144718
0.188778
0.248939
0.340458
0.406727
0.437149
0.352703
0.234976
0.163343
0.10617
0.0525962
0.0073721
-0.0351058
-0.0751534
-0.113597
-0.154205
-0.194021
-0.233638
-0.276963
-0.32285
-0.371243
-0.42308
-0.47867
-0.540319
-0.604694
-0.671276
-0.747997
-0.836222
-0.93407
-1.0552
-1.22102
-1.4638
-1.8353
-1.77721
0.105767
1.44681
0.97809
0.558001
0.3314
0.187074
0.0892829
0.0242083
-0.0190632
-0.0472213
-0.0648042
-0.0726965
-0.0739031
-0.0706274
-0.0634649
-0.05489
-0.0443622
-0.0316347
-0.0168398
-0.00161753
0.0135562
0.0334525
0.056019
0.0789816
0.108197
0.144815
0.189393
0.248853
0.340186
0.406524
0.437408
0.353073
0.23525
0.162961
0.10602
0.0532362
0.00879425
-0.0325091
-0.0736586
-0.113262
-0.152066
-0.190723
-0.230328
-0.272687
-0.318983
-0.368056
-0.418516
-0.473312
-0.534284
-0.597835
-0.664131
-0.740216
-0.827444
-0.924225
-1.04377
-1.20556
-1.43994
-1.80803
-1.73259
0.143009
1.44577
0.965756
0.548201
0.321934
0.178922
0.0831288
0.0182456
-0.0254604
-0.0529496
-0.0692769
-0.0761868
-0.0772555
-0.0741789
-0.0666578
-0.0577911
-0.0474324
-0.0338338
-0.0184737
-0.00369211
0.0118347
0.0318482
0.0545826
0.0787448
0.107104
0.143562
0.190475
0.250051
0.34065
0.4072
0.438528
0.353876
0.235674
0.162823
0.106153
0.0541334
0.00975422
-0.0312027
-0.0718137
-0.110859
-0.148871
-0.187588
-0.227143
-0.268577
-0.314816
-0.36406
-0.413464
-0.467456
-0.527948
-0.590621
-0.656723
-0.732224
-0.81703
-0.91154
-1.03104
-1.19178
-1.41666
-1.77199
-1.68801
0.18618
1.44476
0.952848
0.538014
0.310362
0.169343
0.0758729
0.0112955
-0.0316935
-0.0580816
-0.0742325
-0.0810533
-0.0810989
-0.0776071
-0.0701038
-0.0606965
-0.0504445
-0.0363143
-0.0204168
-0.00600548
0.0100786
0.0299488
0.052706
0.0783542
0.106571
0.142351
0.190315
0.249317
0.340785
0.410449
0.439802
0.354444
0.235053
0.161741
0.106701
0.0562289
0.0118259
-0.0298102
-0.0697214
-0.107203
-0.145256
-0.184767
-0.223935
-0.264658
-0.310083
-0.358332
-0.407728
-0.461679
-0.521473
-0.583648
-0.648842
-0.722178
-0.804455
-0.89769
-1.01781
-1.17776
-1.39448
-1.73023
-1.63596
0.219813
1.44365
0.938877
0.524605
0.300253
0.159085
0.0663185
0.0037945
-0.0373592
-0.0634365
-0.0798084
-0.0865459
-0.0858643
-0.0812741
-0.073397
-0.0637397
-0.0532175
-0.0395951
-0.0236437
-0.0079282
0.00860311
0.0280271
0.051334
0.0775191
0.106125
0.142225
0.187713
0.244631
0.340727
0.415934
0.438204
0.354601
0.236111
0.161674
0.107852
0.0587989
0.0139752
-0.0281381
-0.0674667
-0.103777
-0.141826
-0.18174
-0.22023
-0.25995
-0.304431
-0.351916
-0.401809
-0.45555
-0.513628
-0.575146
-0.639082
-0.710676
-0.79246
-0.884669
-1.00303
-1.15799
-1.36888
-1.69204
-1.5722
0.253912
1.43682
0.92105
0.510757
0.289169
0.148777
0.056632
-0.00429239
-0.0436051
-0.0696702
-0.0855751
-0.0919284
-0.0914637
-0.0857236
-0.0771778
-0.0674416
-0.0557205
-0.042727
-0.0274349
-0.00985873
0.00736042
0.0262
0.0493698
0.0751714
0.105234
0.14288
0.185029
0.241265
0.342025
0.419196
0.433695
0.354239
0.24045
0.164299
0.1085
0.0606362
0.0155265
-0.0271039
-0.0653755
-0.100556
-0.137791
-0.177412
-0.215571
-0.254349
-0.298273
-0.345722
-0.395493
-0.447854
-0.504249
-0.565329
-0.628748
-0.698835
-0.77966
-0.870535
-0.984822
-1.13334
-1.3399
-1.65692
-1.50777
0.315606
1.43556
0.900402
0.493733
0.276243
0.137925
0.0464473
-0.0130029
-0.0512772
-0.0773045
-0.0919618
-0.0972895
-0.0969449
-0.0908561
-0.081732
-0.0712913
-0.0584592
-0.0456763
-0.0309623
-0.0128466
0.00537401
0.0245231
0.0471103
0.072933
0.104007
0.142234
0.1842
0.24148
0.342688
0.418147
0.43002
0.352262
0.242583
0.167252
0.109104
0.0612751
0.0174934
-0.0244775
-0.0626779
-0.0977235
-0.133589
-0.171852
-0.209749
-0.248536
-0.291999
-0.33885
-0.387453
-0.438216
-0.494063
-0.555126
-0.618321
-0.686702
-0.764251
-0.853446
-0.963531
-1.10659
-1.31053
-1.61516
-1.43662
0.365757
1.42764
0.88029
0.476635
0.261795
0.125796
0.0354421
-0.0222515
-0.0601187
-0.0860737
-0.0991136
-0.102802
-0.102008
-0.0964527
-0.0866838
-0.0754239
-0.0625187
-0.0488242
-0.0334612
-0.0161885
0.0017981
0.0219109
0.045468
0.0722146
0.102433
0.139833
0.184356
0.242913
0.342172
0.41655
0.428836
0.350295
0.241193
0.167784
0.109993
0.0619258
0.0201639
-0.0199779
-0.059037
-0.0949564
-0.129681
-0.166216
-0.203314
-0.241968
-0.284764
-0.330439
-0.377912
-0.427589
-0.482964
-0.542894
-0.605392
-0.672846
-0.747589
-0.834877
-0.940745
-1.0785
-1.27733
-1.56316
-1.36299
0.413758
1.41867
0.855803
0.455623
0.244792
0.111941
0.0232075
-0.0333128
-0.0702164
-0.094485
-0.106284
-0.109302
-0.107872
-0.102241
-0.0917095
-0.0800843
-0.0677647
-0.0524947
-0.0356614
-0.0191947
-0.00224439
0.0186388
0.0436634
0.0709938
0.100643
0.137798
0.184664
0.24429
0.341879
0.415847
0.429271
0.349993
0.240076
0.16675
0.109685
0.0630022
0.0230387
-0.0165628
-0.0554772
-0.0905144
-0.124632
-0.160252
-0.196295
-0.234095
-0.275812
-0.320643
-0.367264
-0.416007
-0.470606
-0.528519
-0.589197
-0.655808
-0.729133
-0.81448
-0.916812
-1.04981
-1.23862
-1.50412
-1.27953
0.468273
1.41097
0.830769
0.432962
0.226207
0.0968323
0.00994403
-0.0457826
-0.081048
-0.103228
-0.114602
-0.116817
-0.114046
-0.108204
-0.0974541
-0.0851286
-0.0728193
-0.0568199
-0.0389734
-0.0226267
-0.00562516
0.01577
0.0408835
0.0682136
0.0983022
0.135852
0.183908
0.245431
0.343004
0.416021
0.428794
0.348665
0.23877
0.166314
0.109896
0.0645812
0.0253503
-0.0140773
-0.0515372
-0.0847433
-0.118297
-0.153181
-0.188334
-0.224825
-0.26501
-0.309082
-0.35466
-0.402809
-0.456238
-0.511942
-0.570765
-0.636142
-0.707499
-0.790562
-0.890455
-1.01769
-1.19242
-1.43788
-1.1902
0.52708
1.40045
0.801253
0.406699
0.204939
0.0795143
-0.00427779
-0.0593768
-0.092991
-0.113171
-0.123741
-0.124631
-0.120591
-0.114676
-0.103855
-0.0902997
-0.0773696
-0.0614338
-0.0437743
-0.0270802
-0.00880691
0.0125124
0.0369141
0.064946
0.0962468
0.133293
0.181158
0.245731
0.344738
0.416395
0.426035
0.344788
0.235574
0.166618
0.112296
0.066285
0.0264959
-0.0106032
-0.0462365
-0.0791771
-0.111014
-0.144406
-0.179131
-0.21424
-0.252298
-0.295192
-0.339244
-0.386249
-0.438461
-0.492432
-0.550105
-0.613979
-0.68295
-0.763249
-0.859211
-0.979771
-1.14323
-1.3648
-1.08478
0.59518
1.38395
0.76842
0.378345
0.179744
0.0590629
-0.0206503
-0.0742163
-0.106216
-0.123787
-0.132388
-0.133127
-0.128662
-0.121133
-0.109527
-0.0957818
-0.0823334
-0.0664992
-0.0496942
-0.0326449
-0.0129572
0.00831698
0.032024
0.060683
0.0937575
0.13071
0.178673
0.24543
0.344459
0.414624
0.423031
0.340626
0.231181
0.164432
0.112974
0.0674644
0.028043
-0.00629763
-0.0405736
-0.0730387
-0.102159
-0.133589
-0.168084
-0.201988
-0.237432
-0.278214
-0.32037
-0.365479
-0.416341
-0.468923
-0.525163
-0.587475
-0.654505
-0.731138
-0.820686
-0.934328
-1.08738
-1.28255
-0.969024
0.664873
1.36395
0.729656
0.344274
0.151592
0.035874
-0.0401828
-0.0905342
-0.12042
-0.135215
-0.141514
-0.142255
-0.136588
-0.126712
-0.114742
-0.101672
-0.0877135
-0.0722792
-0.0564949
-0.0388604
-0.0186403
0.00234712
0.0255891
0.0544774
0.0892728
0.127074
0.175698
0.244443
0.343673
0.413032
0.418013
0.336074
0.228386
0.161399
0.110732
0.067822
0.0305878
-0.00203233
-0.0347369
-0.0649186
-0.0913515
-0.120984
-0.154085
-0.186161
-0.219128
-0.257297
-0.297692
-0.340463
-0.388437
-0.438884
-0.492985
-0.553384
-0.618244
-0.69065
-0.776005
-0.881788
-1.02016
-1.18879
-0.840451
0.737982
1.33548
0.678986
0.304196
0.118152
0.00865531
-0.0625699
-0.108407
-0.13534
-0.147446
-0.151564
-0.150524
-0.142717
-0.131936
-0.11994
-0.106797
-0.0932633
-0.0792771
-0.063928
-0.0458658
-0.0268899
-0.00717434
0.0165944
0.0465078
0.0819956
0.119974
0.169033
0.239988
0.342222
0.413858
0.414546
0.32965
0.226644
0.160048
0.109185
0.0683681
0.03354
0.00313526
-0.0265332
-0.0534656
-0.0785271
-0.106598
-0.136335
-0.165438
-0.196415
-0.231573
-0.269128
-0.309261
-0.353277
-0.399686
-0.450614
-0.508438
-0.570345
-0.639071
-0.720604
-0.817936
-0.941733
-1.08035
-0.687255
0.825982
1.29482
0.613683
0.255581
0.0762717
-0.0260218
-0.0884452
-0.12775
-0.150686
-0.159463
-0.160293
-0.156043
-0.146663
-0.136298
-0.12446
-0.111214
-0.098759
-0.0863068
-0.0717912
-0.055425
-0.0392198
-0.0212351
0.00241901
0.0329004
0.0685996
0.110076
0.162945
0.234861
0.34331
0.424765
0.309584
0.251299
0.179346
0.130067
0.0883149
0.0529013
0.0219338
-0.0043106
-0.0287206
-0.0511605
-0.0731641
-0.0970428
-0.12104
-0.145221
-0.172062
-0.201605
-0.233165
-0.267644
-0.304457
-0.343246
-0.386782
-0.436159
-0.488985
-0.54968
-0.622418
-0.708108
-0.810748
-0.878414
-0.425027
0.864967
1.17014
0.532928
0.185753
0.0200593
-0.0680826
-0.11635
-0.144935
-0.161752
-0.166669
-0.164377
-0.15855
-0.149636
-0.140456
-0.13038
-0.119005
-0.10824
-0.0980877
-0.0872482
-0.0765072
-0.0662092
-0.0546346
-0.0393946
-0.019758
0.00324014
0.0355249
0.0832927
0.158778
0.284874
0.378143
0.124879
0.101134
0.0781261
0.068847
0.0454127
0.0194397
-0.00534349
-0.025038
-0.0427404
-0.0590382
-0.0750504
-0.09252
-0.109595
-0.126912
-0.147354
-0.169791
-0.193287
-0.219442
-0.246423
-0.274177
-0.307
-0.343317
-0.379762
-0.426494
-0.485775
-0.557185
-0.663177
-0.829514
-0.393076
1.12749
1.28213
0.321627
0.0125187
-0.0871911
-0.132931
-0.154452
-0.165716
-0.173918
-0.173262
-0.167238
-0.161139
-0.153176
-0.145394
-0.138133
-0.129498
-0.121012
-0.114505
-0.108896
-0.105602
-0.103699
-0.103084
-0.102757
-0.102876
-0.106728
-0.102167
-0.0801554
-0.0150945
0.149277
0.275264
-32.4277
-19.4745
-4.32667
-2.1645
-1.23058
-0.763916
-0.512202
-0.364634
-0.28047
-0.231408
-0.204246
-0.187607
-0.181091
-0.180585
-0.18725
-0.19866
-0.21047
-0.227521
-0.247614
-0.268818
-0.294237
-0.319095
-0.343616
-0.376059
-0.412487
-0.449267
-0.503108
-0.641297
-0.203101
0.512244
-25.8085
-14.7587
-4.74564
-2.44847
-1.48687
-0.990273
-0.711901
-0.541944
-0.435245
-0.36519
-0.317799
-0.284678
-0.263058
-0.249732
-0.244351
-0.243541
-0.245963
-0.253859
-0.264121
-0.275585
-0.290215
-0.305427
-0.321327
-0.3422
-0.365986
-0.391162
-0.423386
-0.462037
-0.119471
0.558694
-20.1851
-11.9831
-4.188
-2.49133
-1.63754
-1.15659
-0.864038
-0.672127
-0.546733
-0.459425
-0.396996
-0.351815
-0.320445
-0.298411
-0.284822
-0.276196
-0.272032
-0.273462
-0.276577
-0.280812
-0.288196
-0.296485
-0.305038