# vtk DataFile Version 2.0
scalar
ASCII
DATASET UNSTRUCTURED_GRID
POINTS 2010 float
1.0 0.0 0.0
0.9971 0.0 0.0004
0.9883 0.0 0.0014
0.9738 0.0 0.0031
0.9538 0.0 0.0054
0.9284 0.0 0.0083
0.898 0.0 0.0116
0.863 0.0 0.0152
0.8237 0.0 0.0192
0.7806 0.0 0.0232
0.7342 0.0 0.0274
0.6851 0.0 0.0315
0.6338 0.0 0.0355
0.5809 0.0 0.0392
0.5271 0.0 0.0425
0.4729 0.0 0.0454
0.4191 0.0 0.0477
0.3662 0.0 0.0492
0.3149 0.0 0.05
0.2658 0.0 0.0498
0.2194 0.0 0.0486
0.1763 0.0 0.0465
0.137 0.0 0.0434
0.102 0.0 0.0393
0.0716 0.0 0.0344
0.0462 0.0 0.0286
0.0262 0.0 0.0222
0.0117 0.0 0.0153
0.0029 0.0 0.0079
0.0 0.0 0.0
0.0029 0.0 -0.0079
0.0117 0.0 -0.0153
0.0262 0.0 -0.0222
0.0462 0.0 -0.0286
0.0716 0.0 -0.0344
0.102 0.0 -0.0393
0.137 0.0 -0.0434
0.1763 0.0 -0.0465
0.2194 0.0 -0.0486
0.2658 0.0 -0.0498
0.3149 0.0 -0.05
0.3662 0.0 -0.0492
0.4191 0.0 -0.0477
0.4729 0.0 -0.0454
0.5271 0.0 -0.0425
0.5809 0.0 -0.0392
0.6338 0.0 -0.0355
0.6851 0.0 -0.0315
0.7342 0.0 -0.0274
0.7806 0.0 -0.0232
0.8237 0.0 -0.0192
0.863 0.0 -0.0152
0.898 0.0 -0.0116
0.9284 0.0 -0.0083
0.9538 0.0 -0.0054
0.9738 0.0 -0.0031
0.9883 0.0 -0.0014
0.9971 0.0 -0.0004
1.0 0.0 0.0
1.0 0.1034 0.0
0.9971 0.1034 0.0003
0.9883 0.1034 0.0013
0.9738 0.1034 0.0028
0.9537 0.1034 0.0049
0.9283 0.1034 0.0074
0.8979 0.1034 0.0104
0.8628 0.1034 0.0136
0.8235 0.1034 0.0171
0.7803 0.1034 0.0207
0.7339 0.1034 0.0243
0.6847 0.1034 0.0278
0.6334 0.1034 0.0312
0.5805 0.1034 0.0343
0.5266 0.1034 0.037
0.4724 0.1034 0.0392
0.4186 0.1034 0.0409
0.3657 0.1034 0.0418
0.3144 0.1034 0.0419
0.2653 0.1034 0.0411
0.2189 0.1034 0.0394
0.1758 0.1034 0.0368
0.1366 0.1034 0.0332
0.1016 0.1034 0.0287
0.0712 0.1034 0.0234
0.0459 0.1034 0.0174
0.026 0.1034 0.0108
0.0116 0.1034 0.0037
0.0029 0.1034 -0.0039
0.0001 0.1034 -0.0118
0.0031 0.1034 -0.0196
0.0119 0.1034 -0.0269
0.0265 0.1034 -0.0337
0.0466 0.1034 -0.0399
0.072 0.1034 -0.0453
0.1025 0.1034 -0.0499
0.1376 0.1034 -0.0535
0.1769 0.1034 -0.0562
0.22 0.1034 -0.0578
0.2664 0.1034 -0.0584
0.3156 0.1034 -0.058
0.3669 0.1034 -0.0567
0.4197 0.1034 -0.0545
0.4735 0.1034 -0.0516
0.5276 0.1034 -0.0481
0.5814 0.1034 -0.0441
0.6342 0.1034 -0.0398
0.6855 0.1034 -0.0352
0.7345 0.1034 -0.0305
0.7809 0.1034 -0.0258
0.8239 0.1034 -0.0212
0.8632 0.1034 -0.0168
0.8982 0.1034 -0.0128
0.9285 0.1034 -0.0091
0.9539 0.1034 -0.006
0.9739 0.1034 -0.0034
0.9883 0.1034 -0.0015
0.9971 0.1034 -0.0004
1.0 0.1034 0.0
1.0 0.2069 0.0
0.9971 0.2069 0.0003
0.9883 0.2069 0.0012
0.9738 0.2069 0.0027
0.9537 0.2069 0.0047
0.9283 0.2069 0.0072
0.8979 0.2069 0.01
0.8628 0.2069 0.0132
0.8234 0.2069 0.0165
0.7803 0.2069 0.0199
0.7338 0.2069 0.0234
0.6846 0.2069 0.0267
0.6333 0.2069 0.0299
0.5803 0.2069 0.0329
0.5265 0.2069 0.0354
0.4723 0.2069 0.0375
0.4185 0.2069 0.0389
0.3656 0.2069 0.0397
0.3143 0.2069 0.0396
0.2651 0.2069 0.0387
0.2188 0.2069 0.0368
0.1757 0.2069 0.0341
0.1364 0.2069 0.0303
0.1015 0.2069 0.0257
0.0712 0.2069 0.0203
0.0459 0.2069 0.0142
0.0259 0.2069 0.0076
0.0116 0.2069 0.0004
0.0029 0.2069 -0.0072
0.0001 0.2069 -0.0151
0.0032 0.2069 -0.0229
0.012 0.2069 -0.0302
0.0266 0.2069 -0.0369
0.0468 0.2069 -0.043
0.0722 0.2069 -0.0484
0.1026 0.2069 -0.0528
0.1378 0.2069 -0.0564
0.1771 0.2069 -0.0589
0.2202 0.2069 -0.0604
0.2666 0.2069 -0.0609
0.3158 0.2069 -0.0603
0.3671 0.2069 -0.0588
0.4199 0.2069 -0.0564
0.4737 0.2069 -0.0534
0.5278 0.2069 -0.0497
0.5815 0.2069 -0.0455
0.6343 0.2069 -0.041
0.6856 0.2069 -0.0362
0.7346 0.2069 -0.0314
0.781 0.2069 -0.0265
0.824 0.2069 -0.0218
0.8632 0.2069 -0.0173
0.8982 0.2069 -0.0131
0.9286 0.2069 -0.0094
0.9539 0.2069 -0.0061
0.9739 0.2069 -0.0035
0.9883 0.2069 -0.0016
0.9971 0.2069 -0.0004
1.0 0.2069 0.0
1.0 0.3103 0.0
0.9971 0.3103 0.0003
0.9883 0.3103 0.0012
0.9738 0.3103 0.0027
0.9537 0.3103 0.0046
0.9283 0.3103 0.0071
0.8979 0.3103 0.0098
0.8628 0.3103 0.0129
0.8234 0.3103 0.0161
0.7802 0.3103 0.0195
0.7338 0.3103 0.0228
0.6846 0.3103 0.0261
0.6332 0.3103 0.0292
0.5803 0.3103 0.032
0.5264 0.3103 0.0344
0.4722 0.3103 0.0364
0.4184 0.3103 0.0377
0.3655 0.3103 0.0384
0.3142 0.3103 0.0382
0.2651 0.3103 0.0372
0.2187 0.3103 0.0353
0.1756 0.3103 0.0324
0.1364 0.3103 0.0286
0.1014 0.3103 0.0239
0.0711 0.3103 0.0185
0.0459 0.3103 0.0123
0.0259 0.3103 0.0056
0.0116 0.3103 -0.0016
0.0029 0.3103 -0.0092
0.0001 0.3103 -0.0171
0.0032 0.3103 -0.0249
0.0121 0.3103 -0.0322
0.0267 0.3103 -0.0389
0.0468 0.3103 -0.045
0.0723 0.3103 -0.0502
0.1028 0.3103 -0.0547
0.1379 0.3103 -0.0581
0.1772 0.3103 -0.0606
0.2204 0.3103 -0.062
0.2668 0.3103 -0.0623
0.3159 0.3103 -0.0617
0.3672 0.3103 -0.0601
0.42 0.3103 -0.0576
0.4738 0.3103 -0.0544
0.5279 0.3103 -0.0506
0.5816 0.3103 -0.0464
0.6344 0.3103 -0.0417
0.6857 0.3103 -0.0369
0.7347 0.3103 -0.0319
0.781 0.3103 -0.027
0.824 0.3103 -0.0222
0.8633 0.3103 -0.0176
0.8983 0.3103 -0.0133
0.9286 0.3103 -0.0095
0.9539 0.3103 -0.0062
0.9739 0.3103 -0.0036
0.9883 0.3103 -0.0016
0.9971 0.3103 -0.0004
1.0 0.3103 0.0
1.0 0.4138 0.0
0.9971 0.4138 0.0003
0.9883 0.4138 0.0012
0.9738 0.4138 0.0026
0.9537 0.4138 0.0046
0.9283 0.4138 0.007
0.8978 0.4138 0.0097
0.8627 0.4138 0.0127
0.8234 0.4138 0.0159
0.7802 0.4138 0.0192
0.7337 0.4138 0.0225
0.6845 0.4138 0.0257
0.6332 0.4138 0.0287
0.5802 0.4138 0.0314
0.5264 0.4138 0.0338
0.4722 0.4138 0.0357
0.4183 0.4138 0.0369
0.3654 0.4138 0.0375
0.3141 0.4138 0.0373
0.265 0.4138 0.0362
0.2186 0.4138 0.0342
0.1756 0.4138 0.0313
0.1363 0.4138 0.0274
0.1014 0.4138 0.0227
0.0711 0.4138 0.0172
0.0458 0.4138 0.011
0.0259 0.4138 0.0042
0.0116 0.4138 -0.003
0.003 0.4138 -0.0106
0.0002 0.4138 -0.0185
0.0032 0.4138 -0.0263
0.0121 0.4138 -0.0336
0.0268 0.4138 -0.0402
0.0469 0.4138 -0.0463
0.0724 0.4138 -0.0515
0.1028 0.4138 -0.0559
0.138 0.4138 -0.0593
0.1773 0.4138 -0.0617
0.2204 0.4138 -0.0631
0.2668 0.4138 -0.0633
0.316 0.4138 -0.0626
0.3673 0.4138 -0.0609
0.4201 0.4138 -0.0584
0.4739 0.4138 -0.0552
0.5279 0.4138 -0.0513
0.5817 0.4138 -0.0469
0.6345 0.4138 -0.0422
0.6857 0.4138 -0.0373
0.7348 0.4138 -0.0323
0.7811 0.4138 -0.0273
0.8241 0.4138 -0.0224
0.8633 0.4138 -0.0178
0.8983 0.4138 -0.0135
0.9286 0.4138 -0.0096
0.9539 0.4138 -0.0063
0.9739 0.4138 -0.0036
0.9883 0.4138 -0.0016
0.9971 0.4138 -0.0004
1.0 0.4138 0.0
1.0 0.5172 0.0
0.9971 0.5172 0.0003
0.9883 0.5172 0.0012
0.9738 0.5172 0.0026
0.9537 0.5172 0.0045
0.9283 0.5172 0.0069
0.8978 0.5172 0.0096
0.8627 0.5172 0.0126
0.8234 0.5172 0.0157
0.7802 0.5172 0.019
0.7337 0.5172 0.0222
0.6845 0.5172 0.0254
0.6331 0.5172 0.0283
0.5802 0.5172 0.031
0.5263 0.5172 0.0333
0.4721 0.5172 0.0351
0.4183 0.5172 0.0364
0.3654 0.5172 0.0369
0.3141 0.5172 0.0366
0.265 0.5172 0.0355
0.2186 0.5172 0.0334
0.1756 0.5172 0.0304
0.1363 0.5172 0.0265
0.1014 0.5172 0.0218
0.0711 0.5172 0.0163
0.0458 0.5172 0.0101
0.0259 0.5172 0.0033
0.0116 0.5172 -0.004
0.003 0.5172 -0.0116
0.0002 0.5172 -0.0195
0.0033 0.5172 -0.0273
0.0122 0.5172 -0.0345
0.0268 0.5172 -0.0412
0.047 0.5172 -0.0472
0.0724 0.5172 -0.0524
0.1029 0.5172 -0.0568
0.138 0.5172 -0.0602
0.1774 0.5172 -0.0625
0.2205 0.5172 -0.0638
0.2669 0.5172 -0.0641
0.316 0.5172 -0.0633
0.3673 0.5172 -0.0616
0.4201 0.5172 -0.059
0.4739 0.5172 -0.0557
0.528 0.5172 -0.0518
0.5817 0.5172 -0.0473
0.6345 0.5172 -0.0426
0.6857 0.5172 -0.0376
0.7348 0.5172 -0.0326
0.7811 0.5172 -0.0275
0.8241 0.5172 -0.0226
0.8633 0.5172 -0.0179
0.8983 0.5172 -0.0136
0.9286 0.5172 -0.0097
0.9539 0.5172 -0.0063
0.9739 0.5172 -0.0036
0.9883 0.5172 -0.0016
0.9971 0.5172 -0.0004
1.0 0.5172 0.0
1.0 0.6207 0.0
0.9971 0.6207 0.0003
0.9883 0.6207 0.0012
0.9738 0.6207 0.0026
0.9537 0.6207 0.0045
0.9283 0.6207 0.0068
0.8978 0.6207 0.0095
0.8627 0.6207 0.0125
0.8233 0.6207 0.0156
0.7802 0.6207 0.0188
0.7337 0.6207 0.022
0.6845 0.6207 0.0251
0.6331 0.6207 0.0281
0.5802 0.6207 0.0307
0.5263 0.6207 0.033
0.4721 0.6207 0.0348
0.4183 0.6207 0.0359
0.3654 0.6207 0.0364
0.3141 0.6207 0.0361
0.2649 0.6207 0.0349
0.2186 0.6207 0.0328
0.1755 0.6207 0.0298
0.1363 0.6207 0.0259
0.1013 0.6207 0.0211
0.0711 0.6207 0.0156
0.0458 0.6207 0.0094
0.0259 0.6207 0.0026
0.0116 0.6207 -0.0047
0.003 0.6207 -0.0123
0.0002 0.6207 -0.0202
0.0033 0.6207 -0.028
0.0122 0.6207 -0.0353
0.0268 0.6207 -0.0419
0.047 0.6207 -0.0479
0.0725 0.6207 -0.0531
0.1029 0.6207 -0.0574
0.1381 0.6207 -0.0608
0.1774 0.6207 -0.0631
0.2205 0.6207 -0.0644
0.267 0.6207 -0.0646
0.3161 0.6207 -0.0638
0.3674 0.6207 -0.062
0.4202 0.6207 -0.0594
0.474 0.6207 -0.0561
0.528 0.6207 -0.0521
0.5818 0.6207 -0.0477
0.6346 0.6207 -0.0429
0.6858 0.6207 -0.0379
0.7348 0.6207 -0.0328
0.7811 0.6207 -0.0277
0.8241 0.6207 -0.0227
0.8633 0.6207 -0.018
0.8983 0.6207 -0.0136
0.9286 0.6207 -0.0097
0.9539 0.6207 -0.0064
0.9739 0.6207 -0.0036
0.9883 0.6207 -0.0016
0.9971 0.6207 -0.0004
1.0 0.6207 0.0
1.0 0.7241 0.0
0.9971 0.7241 0.0003
0.9883 0.7241 0.0012
0.9738 0.7241 0.0026
0.9537 0.7241 0.0045
0.9283 0.7241 0.0068
0.8978 0.7241 0.0095
0.8627 0.7241 0.0124
0.8233 0.7241 0.0155
0.7802 0.7241 0.0187
0.7337 0.7241 0.0219
0.6845 0.7241 0.0249
0.6331 0.7241 0.0279
0.5802 0.7241 0.0305
0.5263 0.7241 0.0327
0.4721 0.7241 0.0345
0.4182 0.7241 0.0356
0.3653 0.7241 0.0361
0.314 0.7241 0.0357
0.2649 0.7241 0.0345
0.2186 0.7241 0.0324
0.1755 0.7241 0.0294
0.1363 0.7241 0.0254
0.1013 0.7241 0.0206
0.0711 0.7241 0.0151
0.0458 0.7241 0.0088
0.0259 0.7241 0.002
0.0116 0.7241 -0.0053
0.003 0.7241 -0.0129
0.0002 0.7241 -0.0208
0.0033 0.7241 -0.0286
0.0122 0.7241 -0.0358
0.0268 0.7241 -0.0425
0.047 0.7241 -0.0485
0.0725 0.7241 -0.0536
0.103 0.7241 -0.0579
0.1381 0.7241 -0.0613
0.1775 0.7241 -0.0636
0.2206 0.7241 -0.0648
0.267 0.7241 -0.065
0.3161 0.7241 -0.0642
0.3674 0.7241 -0.0624
[...]
POINT_DATA 2010
SCALARS cp1 float
LOOKUP_TABLE default
0.42671
0.33698
0.219184
0.153597
0.0967169
0.0433952
-0.00525222
-0.0500859
-0.0949733
-0.138129
-0.181099
-0.22531
-0.272826
-0.322359
-0.37135
-0.427566
-0.490278
-0.555185
-0.626396
-0.70141
-0.783826
-0.88473
-0.996682
-1.12937
-1.3071
-1.54726
-1.93822
-2.81741
-3.87746
-1.66658
1.37145
1.39211
0.876972
0.598535
0.411855
0.282412
0.188547
0.120786
0.074744
0.0415494
0.0197273
0.00813688
0.00237924
0.00145931
0.00434923
0.00823198
0.0136848
0.0227067
0.0341849
0.0466219
0.0608202
0.0792292
0.0992845
0.124335
0.156468
0.19795
0.249111
0.339969
0.411156
0.431928
0.353643
0.239999
0.162271
0.100422
0.0456091
-0.00401455
-0.0503699
-0.0951683
-0.139161
-0.182906
-0.226778
-0.274225
-0.324812
-0.376296
-0.433252
-0.496258
-0.563486
-0.636148
-0.714782
-0.803964
-0.909713
-1.02886
-1.17299
-1.36528
-1.63465
-2.05228
-2.69681
-2.85698
-0.81966
1.34756
1.24051
0.847196
0.585575
0.404508
0.278409
0.188064
0.122563
0.0764839
0.0440067
0.0225265
0.0104173
0.00460885
0.00269959
0.00466609
0.00912502
0.0152635
0.024236
0.0350778
0.0477025
0.0626648
0.080761
0.10137
0.12686
0.160742
0.20479
0.263115
0.351913
0.415289
0.431999
0.350396
0.235078
0.158626
0.0975497
0.0429337
-0.00586888
-0.0522244
-0.0967649
-0.140333
-0.184255
-0.227697
-0.275081
-0.325892
-0.378086
-0.435484
-0.498054
-0.56593
-0.638852
-0.718404
-0.809275
-0.914657
-1.03169
-1.17188
-1.35503
-1.60699
-1.99303
-2.63401
-3.04946
-1.10126
1.33819
1.26607
0.826529
0.559948
0.384533
0.264633
0.178518
0.116196
0.0719218
0.0414117
0.0207996
0.00925632
0.00436299
0.00229761
0.00391292
0.00878535
0.0155522
0.02451
0.0349645
0.0474245
0.0620653
0.0799489
0.100902
0.126212
0.159345
0.20108
0.257459
0.351006
0.420113
0.428695
0.347749
0.233313
0.157851
0.0963479
0.0411268
-0.00654016
-0.0522044
-0.0968522
-0.140501
-0.184344
-0.228709
-0.275826
-0.325067
-0.378311
-0.436278
-0.497523
-0.565145
-0.638146
-0.717648
-0.808433
-0.910502
-1.02409
-1.16358
-1.34471
-1.59091
-1.97166
-2.61238
-3.02963
-0.958544
1.37084
1.25248
0.81867
0.554676
0.379777
0.259209
0.173397
0.111704
0.067705
0.0388733
0.0188789
0.00739818
0.00289104
0.00108046
0.00292735
0.00824903
0.0155474
0.0242161
0.034497
0.0469484
0.0613119
0.079102
0.10101
0.127393
0.159838
0.200183
0.258106
0.354237
0.423354
0.427678
0.345398
0.231351
0.157685
0.0959346
0.0403006
-0.00726562
-0.0522535
-0.0966137
-0.140646
-0.184639
-0.229529
-0.275726
-0.324046
-0.377801
-0.435783
-0.49677
-0.563957
-0.63705
-0.716624
-0.8057
-0.905032
-1.01845
-1.15788
-1.33953
-1.5859
-1.95754
-2.58532
-2.99107
-0.913597
1.36993
1.24496
0.812381
0.549166
0.375129
0.254714
0.168823
0.108341
0.0647019
0.0362143
0.0170823
0.00595762
0.00107317
-0.000996216
0.0015964
0.00799969
0.01536
0.0235207
0.0334647
0.0463413
0.0615251
0.0787568
0.100088
0.127175
0.159989
0.201518
0.260955
0.355841
0.423359
0.426819
0.343579
0.229137
0.156449
0.0962944
0.0416595
-0.00726908
-0.0531453
-0.0967923
-0.140458
-0.184107
-0.228818
-0.27526
-0.323522
-0.377034
-0.434678
-0.495717
-0.562518
-0.63534
-0.714485
-0.8014
-0.899186
-1.01265
-1.15094
-1.33205
-1.58064
-1.94733
-2.56053
-2.95272
-0.876116
1.3794
1.23918
0.806787
0.543813
0.37136
0.250344
0.164696
0.105369
0.0625046
0.0331285
0.0145955
0.00435115
-0.000534984
-0.00272493
0.000324036
0.00712316
0.0143225
0.0225563
0.0322991
0.0455169
0.0616687
0.0790177
0.0999654
0.126554
0.159711
0.203326
0.263246
0.355867
0.422206
0.426965
0.34336
0.227859
0.154291
0.0955876
0.0428529
-0.00678329
-0.0533562
-0.0967747
-0.14017
-0.182992
-0.226975
-0.274724
-0.323303
-0.375873
-0.433395
-0.493968
-0.560558
-0.632674
-0.710781
-0.797439
-0.895702
-1.00763
-1.14432
-1.32335
-1.57095
-1.9344
-2.53852
-2.92534
-0.851055
1.38187
1.23351
0.800539
0.538076
0.366934
0.24757
0.160905
0.101743
0.0601537
0.0306218
0.0118288
0.00229379
-0.00196204
-0.00396443
-0.000956909
0.00532219
0.0125349
0.0216677
0.0317333
0.0447551
0.0611184
0.0790579
0.100654
0.126542
0.15834
0.202765
0.264592
0.357524
0.422841
0.428486
0.344419
0.22795
0.153208
0.094234
0.0421417
-0.00629955
-0.0518786
-0.0959301
-0.139873
-0.181882
-0.225329
-0.273913
-0.322606
-0.373998
-0.43118
-0.492278
-0.558683
-0.629226
-0.706631
-0.794916
-0.892735
-1.0022
-1.13746
-1.31399
-1.55826
-1.91974
-2.51989
-2.89434
-0.818997
1.38782
1.22757
0.794388
0.532105
0.362881
0.244624
0.157206
0.0973205
0.0571842
0.0288531
0.00943748
-0.000294639
-0.00371772
-0.00537559
-0.00265861
0.00358533
0.0111735
0.0208443
0.0315255
0.0440568
0.0599366
0.078594
0.100587
0.126398
0.157886
0.200359
0.262443
0.359682
0.42727
0.430123
0.344918
0.227226
0.152498
0.0946051
0.0424598
-0.00577552
-0.0508465
-0.0955294
-0.138823
-0.180056
-0.224567
-0.272997
-0.320889
-0.371603
-0.428062
-0.489926
-0.556735
-0.62606
-0.703118
-0.792036
-0.887913
-0.99571
-1.13056
-1.30478
-1.54644
-1.90593
-2.50234
-2.86544
-0.795508
1.38751
1.2212
0.788134
0.527883
0.357882
0.23989
0.153487
0.0939186
0.0536362
0.0264841
0.00759486
-0.00304399
-0.00633819
-0.0069802
-0.00393037
0.00246504
0.00983965
0.0193623
0.0309259
0.0431197
0.0582912
0.0778375
0.100048
0.126687
0.159418
0.198382
0.257182
0.359523
0.432902
0.427542
0.343561
0.22818
0.154289
0.0969226
0.0440226
-0.00579608
-0.0508215
-0.0949021
-0.13697
-0.178358
-0.224041
-0.27164
-0.318398
-0.369274
-0.425518
-0.486592
-0.554009
-0.623332
-0.698895
-0.787427
-0.882218
-0.989623
-1.1248
-1.29816
-1.53489
-1.89055
-2.48214
-2.82407
-0.750757
1.39711
1.21514
0.783293
0.522739
0.351988
0.234069
0.15029
0.0912779
0.0496824
0.0231292
0.00565577
-0.00547973
-0.00927557
-0.00889171
-0.00490542
0.00149321
0.00796961
0.0173312
0.0297758
0.0422901
0.0571968
0.0764429
0.0989685
0.127122
0.160851
0.197981
0.254341
0.358212
0.434414
0.422119
0.341895
0.232757
0.158894
0.0977559
0.0439254
-0.00523961
-0.0497176
-0.0935214
-0.135559
-0.177371
-0.222596
-0.269302
-0.315714
-0.367294
-0.423834
-0.483199
-0.549815
-0.61937
-0.694095
-0.78208
-0.877328
-0.984401
-1.11796
-1.28977
-1.52405
-1.87275
-2.45668
-2.7945
-0.715307
1.39449
1.20836
0.776528
0.516397
0.346663
0.22977
0.146982
0.0875163
0.0457979
0.0195825
0.00284583
-0.00775742
-0.0116903
-0.0113117
-0.00676238
0.000264827
0.00635435
0.0152735
0.0278473
0.0416206
0.0571409
0.0753339
0.0980736
0.126158
0.159377
0.198103
0.254869
0.357333
0.432807
0.419668
0.341153
0.235644
0.161414
0.0969411
0.0435451
-0.00356328
-0.0485469
-0.0924901
-0.133902
-0.175684
-0.220681
-0.266667
-0.313257
-0.365452
-0.421145
-0.479402
-0.545345
-0.615164
-0.68991
-0.776569
-0.872221
-0.97923
-1.10895
-1.27851
-1.51281
-1.85629
-2.42959
-2.75949
-0.697449
1.4026
1.20215
0.768806
0.509562
0.340712
0.225575
0.143177
0.08308
0.0423258
0.015893
-0.000683827
-0.00999394
-0.0138121
-0.0141556
-0.00945074
-0.00144033
0.00516279
0.0137131
0.0258817
0.0405931
0.0567604
0.0745106
0.0972636
0.124097
0.156587
0.198465
0.256634
0.357365
0.432352
0.419725
0.34103
0.235962
0.161866
0.0968688
0.0439791
-0.00266871
-0.0481139
-0.0909889
-0.131473
-0.173737
-0.218843
-0.263878
-0.310625
-0.362633
-0.416816
-0.47566
-0.541983
-0.611155
-0.685388
-0.769796
-0.864757
-0.973181
-1.1012
-1.26728
-1.49941
-1.83875
-2.40702
-2.72862
-0.667301
1.4107
1.19589
0.761456
0.502919
0.33484
0.219663
0.138173
0.0789908
0.0390378
0.0121384
-0.00434294
-0.0130088
-0.0166115
-0.0168496
-0.0120864
-0.00379733
0.00375707
0.0125958
0.0243795
0.0389728
0.0554775
0.0736726
0.0958925
0.122629
0.155829
0.198975
0.257598
0.357499
0.432595
0.419841
0.341213
0.236355
0.162282
0.0971428
0.044172
-0.00243712
-0.0468399
-0.0885832
-0.129484
-0.17212
-0.2161
-0.260462
-0.308122
-0.35927
-0.412328
-0.472291
-0.53785
-0.605702
-0.679847
-0.763108
-0.856482
-0.964304
-1.0934
-1.25884
-1.48633
-1.81939
-2.38376
-2.68379
-0.621611
1.41373
1.18817
0.753263
0.495816
0.329195
0.213396
0.132129
0.0743534
0.0349588
0.00858538
-0.0077251
-0.0166448
-0.0201031
-0.019478
-0.0144616
-0.00667538
0.00155962
0.0113034
0.0230412
0.0368617
0.0536872
0.0731623
0.0951833
0.121995
0.155828
0.198876
0.257535
0.35732
0.432494
0.419796
0.341271
0.236502
0.161833
0.0968879
0.0452547
-0.000883944
-0.0448173
-0.0862548
-0.12763
-0.169924
-0.212784
-0.257354
-0.305659
-0.355405
-0.4081
-0.468365
-0.531958
-0.599046
-0.673746
-0.756598
-0.848987
-0.954497
-1.08319
-1.24999
-1.47257
-1.796
-2.35423
-2.63317
-0.57747
1.41545
1.17889
0.743791
0.487865
0.323346
0.206924
0.125845
0.0690123
0.0299896
0.00473335
-0.0116302
-0.0206178
-0.0234652
-0.02216
-0.0171593
-0.00996248
-0.00126266
0.00974289
0.0217501
0.0348476
0.0515228
0.0719168
0.095045
0.121973
0.15539
0.19848
0.257394
0.35724
0.432426
0.419591
0.341141
0.23629
0.160819
0.0967964
0.0481483
0.00227859
-0.0432543
-0.0849814
-0.125756
-0.167141
-0.209598
-0.254557
-0.302104
-0.350922
-0.403713
-0.463204
-0.525346
-0.592642
-0.667508
-0.748264
-0.840448
-0.946144
-1.07275
-1.23662
-1.45277
-1.77189
-2.325
-2.58138
-0.532182
1.42004
1.16847
0.733338
0.479304
0.315558
0.199688
0.120068
0.0638589
0.0246929
-0.000303568
-0.0166578
-0.025026
-0.0267166
-0.0248712
-0.0204493
-0.013238
-0.00390892
0.00733665
0.0196794
0.0331938
0.0497819
0.0700233
0.0943963
0.122156
0.155089
0.198072
0.256988
0.357011
0.432234
0.419714
0.341363
0.236414
0.16065
0.0973381
0.0499814
0.00436046
-0.0413491
-0.0831618
-0.123839
-0.164256
-0.205752
-0.250553
-0.297629
-0.346343
-0.399059
-0.456834
-0.518138
-0.586006
-0.660736
-0.739473
-0.830411
-0.937004
-1.0615
-1.21857
-1.42963
-1.75082
-2.29576
-2.52163
-0.467067
1.42402
1.15587
0.722726
0.470461
0.305764
0.191633
0.113991
0.0578361
0.0187022
-0.00574425
-0.0217252
-0.0298252
-0.0307483
-0.0281297
-0.0239769
-0.0163981
-0.00637067
0.00425934
0.0169298
0.0313755
0.0483624
0.068824
0.0927668
0.120563
0.154841
0.19838
0.25675
0.356919
0.432201
0.419844
0.341538
0.236159
0.161411
0.099391
0.0503342
0.00458918
-0.0387439
-0.0798673
-0.120928
-0.16129
-0.201551
-0.245917
-0.292919
-0.340943
-0.393334
-0.450204
-0.510818
-0.578167
-0.652459
-0.730962
-0.820467
-0.924699
-1.04618
-1.20024
-1.41004
-1.72927
-2.25699
-2.44654
-0.421569
1.42995
1.14241
0.710264
0.46045
0.295407
0.183584
0.106022
0.0496944
0.0123282
-0.0109025
-0.0270195
-0.0349589
-0.0354821
-0.0323221
-0.0276143
-0.0198181
-0.00915863
0.00142271
0.0138971
0.0290958
0.0467844
0.0674838
0.0901978
0.117655
0.154778
0.199461
0.256856
0.357014
0.432313
0.419516
0.341162
0.235019
0.162098
0.102343
0.0512552
0.00544065
-0.0359002
-0.0769217
-0.11761
-0.157393
-0.197132
-0.241173
-0.287366
-0.334562
-0.386726
-0.442791
-0.502856
-0.569581
-0.642959
-0.720659
-0.809083
-0.910452
-1.02817
-1.18326
-1.39266
-1.70075
-2.20778
-2.37135
-0.364543
1.43387
1.12776
0.696613
0.447254
0.285431
0.174847
0.0961783
0.0414596
0.00618596
-0.0175828
-0.0333779
-0.0398874
-0.0402776
-0.0373544
-0.03193
-0.0237389
-0.0124229
-0.00133956
0.0105445
0.0263629
0.0447129
0.0651013
0.0880413
0.116221
0.154605
0.199489
0.256497
0.356711
0.431746
0.419434
0.341094
0.234301
0.161787
0.103808
0.0534081
0.00812205
-0.032812
-0.0743782
-0.114483
-0.152823
-0.192102
-0.235398
-0.280475
-0.327766
-0.379696
-0.43392
-0.493463
-0.560591
-0.632586
-0.708462
-0.795485
-0.895245
-1.01054
-1.16348
-1.36866
-1.66441
-2.15596
-2.30189
-0.308249
1.43751
1.11248
0.68137
0.433448
0.27394
0.163972
0.0853327
0.0332723
-0.000918933
-0.0256651
-0.0400971
-0.0453213
-0.045714
-0.0425213
-0.0365387
-0.0281274
-0.0168337
-0.00504204
0.00740999
0.0232796
0.0420828
0.062591
0.0864301
0.115834
0.152961
0.196752
0.256046
0.357542
0.431645
0.419697
0.341621
0.23464
0.161232
0.104536
0.0562313
0.0108029
-0.0302511
-0.0710658
-0.110274
-0.147794
-0.186779
-0.228672
-0.272669
-0.319776
-0.371319
-0.424428
-0.483138
-0.549742
-0.620022
-0.694853
-0.780105
-0.87827
-0.993629
-1.14126
-1.33701
-1.62232
-2.10159
-2.2332
-0.253706
1.43753
1.09434
0.66521
0.418307
0.260775
0.151854
0.0743748
0.023478
-0.00988878
-0.0335396
-0.0470969
-0.0521648
-0.0521071
-0.0479824
-0.0412167
-0.0327583
-0.0222086
-0.00981031
0.00390501
0.019887
0.0394718
0.0603939
0.0841635
0.114222
0.149649
0.192915
0.256466
0.360144
0.432693
0.419914
0.341815
0.234981
0.161298
0.105046
0.0581186
0.0130331
-0.0272922
-0.066489
-0.104676
-0.142342
-0.181356
-0.221333
-0.26393
-0.31033
-0.360924
-0.413613
-0.471607
-0.536736
-0.605368
-0.678999
-0.76224
-0.859079
-0.975182
-1.11784
-1.30218
-1.57824
-2.04067
-2.14135
-0.182116
1.44035
1.07374
0.645488
0.400424
0.245405
0.138587
0.0632444
0.0126889
-0.0202918
-0.0422599
-0.0551852
-0.0598744
-0.059074
-0.0545557
-0.0467564
-0.0376385
-0.0273798
-0.0146824
-0.000695282
0.0155693
0.0359945
0.0578568
0.0820167
0.111355
0.146784
0.191122
0.256617
0.361321
0.43286
0.418918
0.340007
0.233991
0.162704
0.106829
0.0597822
0.0154365
-0.0238702
-0.061454
-0.0987291
-0.136101
-0.174399
-0.21248
-0.254022
-0.300213
-0.348806
-0.400518
-0.458017
-0.521426
-0.588711
-0.660211
-0.74179
-0.838045
-0.952082
-1.08929
-1.26629
-1.53622
-1.97292
-2.02585
-0.0944161
1.44653
1.04892
0.621833
0.379859
0.22804
0.12377
0.0506942
0.00107325
-0.0318862
-0.0523846
-0.0643282
-0.067943
-0.0665785
-0.0621934
-0.0535042
-0.0436862
-0.0331358
-0.0196912
-0.0054799
0.0107634
0.0309747
0.0537012
0.0793498
0.109094
0.145475
0.190153
0.254905
0.360024
0.4321
0.416533
0.33654
0.232149
0.165303
0.110109
0.0617075
0.0178872
-0.0197818
-0.0562182
-0.0929568
-0.128611
-0.164943
-0.20211
-0.243424
-0.288395
-0.334706
-0.385327
-0.441547
-0.502706
-0.569304
-0.639461
-0.719152
-0.814129
-0.92279
-1.05408
-1.22756
-1.48959
-1.89552
-1.91107
-0.0110971
1.45055
1.02083
0.594494
0.357316
0.20783
0.105992
0.0358072
-0.0124274
-0.0440587
-0.0634451
-0.0748394
-0.076824
-0.0743845
-0.0703064
-0.0615959
-0.0509746
-0.0396615
-0.0258845
-0.0108103
0.00577001
0.0254167
0.0485434
0.0745132
0.105637
0.144274
0.188926
0.253026
0.357857
0.431291
0.414514
0.333666
0.230323
0.165974
0.110626
0.0622124
0.021461
-0.0141793
-0.0505041
-0.086386
-0.11977
-0.154131
-0.190641
-0.231095
-0.273351
-0.317523
-0.367389
-0.421699
-0.480639
-0.546546
-0.615475
-0.692657
-0.784824
-0.888473
-1.01332
-1.18105
-1.43173
-1.81051
-1.78001
0.088379
1.44887
0.987054
0.565392
0.332837
0.184853
0.0852301
0.0180114
-0.0279245
-0.0572019
-0.0756419
-0.086442
-0.0869556
-0.0830464
-0.078673
-0.0704803
-0.0590134
-0.0468852
-0.0336457
-0.0177934
-0.000453873
0.0190811
0.0428458
0.0685227
0.0996119
0.140125
0.186825
0.251178
0.355737
0.430236
0.411865
0.330702
0.22777
0.163634
0.108703
0.0626414
0.0253031
-0.00856269
-0.0443129
-0.0781635
-0.109214
-0.142259
-0.177396
-0.215343
-0.254923
-0.297446
-0.345616
-0.397689
-0.455019
-0.518667
-0.585378
-0.660443
-0.748776
-0.847861
-0.967277
-1.12587
-1.36147
-1.71603
-1.63442
0.196578
1.43847
0.945787
0.529509
0.302063
0.157885
0.0619125
-0.00266103
-0.0463787
-0.0726341
-0.0891751
-0.0980634
-0.0975475
-0.0930243
-0.0876163
-0.0793939
-0.0680418
-0.0557719
-0.0426576
-0.0263373
-0.00895041
0.0102936
0.0347942
0.061182
0.0918344
0.132606
0.182431
0.249189
0.353255
0.427968
0.40742
0.325057
0.222267
0.158938
0.107246
0.0645113
0.0281632
-0.00356832
-0.0364061
-0.0681633
-0.0970218
-0.127906
-0.16051
-0.195492
-0.233032
-0.273537
-0.318826
-0.368193
-0.422665
-0.483212
-0.54699
-0.619581
-0.703393
-0.797704
-0.912988
-1.06216
-1.27671
-1.59802
-1.46148
0.333222
1.42744
0.896724
0.483268
0.262404
0.125133
0.0350076
-0.0260975
-0.0669385
-0.0902463
-0.104213
-0.109938
-0.108264
-0.103627
-0.0971561
-0.0883763
-0.0777262
-0.0664134
-0.0533315
-0.037401
-0.0212796
-0.00222707
0.0224625
0.0493198
0.08162
0.123616
0.174606
0.244128
0.349871
0.424582
0.411673
0.318307
0.217761
0.156213
0.108337
0.0684285
0.0336849
0.00444418
-0.0250314
-0.0548727
-0.0818356
-0.109512
-0.139448
-0.172101
-0.206902
-0.243985
-0.285524
-0.331187
-0.380859
-0.437133
-0.497626
-0.565629
-0.644529
-0.733949
-0.844292
-0.983113
-1.17404
-1.45285
-1.25182
0.47592
1.40845
0.831104
0.426049
0.213339
0.0836414
0.00131082
-0.054371
-0.0897855
-0.108242
-0.118872
-0.122039
-0.11912
-0.113837
-0.106823
-0.0979636
-0.0882951
-0.0784133
-0.066373
-0.0527323
-0.038972
-0.0207441
0.0026473
0.0296367
0.0657979
0.111735
0.165587
0.241539
0.355139
0.43902
0.247822
0.189786
0.134071
0.101221
0.0678416
0.0367346
0.0092509
-0.014614
-0.0382611
-0.0621414
-0.0838875
-0.105413
-0.129835
-0.157075
-0.185185
-0.215294
-0.249351
-0.287313
-0.328525
-0.374724
-0.425455
-0.482944
-0.54946
-0.626743
-0.724147
-0.84645
-1.0056
-1.18897
-0.88137
0.599486
1.2793
0.724306
0.339239
0.137982
0.0236651
-0.044165
-0.0886845
-0.11619
-0.128842
-0.135663
-0.137719
-0.134638
-0.129957
-0.124515
-0.117718
-0.111011
-0.104335
-0.0965202
-0.0896328
-0.0832886
-0.0740835
-0.0635175
-0.0509514
-0.0307265
-0.00107227
0.0421842
0.122268
0.254295
0.351209
-0.051315
-0.0533335
-0.0298396
-0.00243062
-0.0117814
-0.0289332
-0.045242
-0.0599647
-0.0748211
-0.0897707
-0.102535
-0.114491
-0.130634
-0.150172
-0.168554
-0.188442
-0.212418
-0.239987
-0.269827
-0.301425
-0.335936
-0.377383
-0.423857
-0.477833
-0.551932
-0.647402
-0.787347
-1.05447
-0.810603
0.903875
1.47433
0.52785
0.137204
-0.00160901
-0.0712977
-0.108009
-0.133759
-0.150485
-0.154663
-0.157044
-0.158307
-0.154685
-0.151711
-0.149371
-0.145379
-0.14311
-0.141551
-0.139427
-0.14207
-0.147831
-0.153379
-0.164555
-0.180669
-0.195542
-0.204244
-0.199068
-0.138042
0.0330236
0.164517
-16.2837
-8.78585
-0.656412
-1.00479
-0.717134
-0.520624
-0.413967
-0.339127
-0.284319
-0.248405
-0.224067
-0.209084
-0.205213
-0.2053
-0.209946
-0.219016
-0.232728
-0.253438
-0.275362
-0.296732
-0.323421
-0.35767
-0.38962
-0.424819
-0.471038
-0.527398
-0.612762
-0.803364
-0.372597
0.362005
-23.3146
-14.9948
-5.63428
-3.53309
-2.26371
-1.54484
-1.13535
-0.87422
-0.703959
-0.585016
-0.499442
-0.437855
-0.395122
-0.364472
-0.344008
-0.331335
-0.326489
-0.32865
-0.333167
-0.34017
-0.352453
-0.369185
-0.385674
-0.406413
-0.435588
-0.473253
-0.525922
-0.602869
-0.289947
0.381268
-31.0119
-19.0778
-7.75269
-4.6268
-3.01656
-2.12583
-1.5726
-1.2084
-0.968301
-0.800109
-0.676992
-0.586622
-0.521887
-0.473213
-0.436823
-0.410827
-0.393908
-0.383763
-0.376855
-0.373805
-0.375774
-0.380721
-0.386064
-0.39543
-0.409936
-0.429575
-0.46202
-0.541023
-0.231