# vtk DataFile Version 2.0
scalar
ASCII
DATASET UNSTRUCTURED_GRID
POINTS 2010 float
1.0 0.0 0.0
0.9971 0.0 0.0004
0.9883 0.0 0.0014
0.9738 0.0 0.0031
0.9538 0.0 0.0054
0.9284 0.0 0.0083
0.898 0.0 0.0116
0.863 0.0 0.0152
0.8237 0.0 0.0192
0.7806 0.0 0.0232
0.7342 0.0 0.0274
0.6851 0.0 0.0315
0.6338 0.0 0.0355
0.5809 0.0 0.0392
0.5271 0.0 0.0425
0.4729 0.0 0.0454
0.4191 0.0 0.0477
0.3662 0.0 0.0492
0.3149 0.0 0.05
0.2658 0.0 0.0498
0.2194 0.0 0.0486
0.1763 0.0 0.0465
0.137 0.0 0.0434
0.102 0.0 0.0393
0.0716 0.0 0.0344
0.0462 0.0 0.0286
0.0262 0.0 0.0222
0.0117 0.0 0.0153
0.0029 0.0 0.0079
0.0 0.0 0.0
0.0029 0.0 -0.0079
0.0117 0.0 -0.0153
0.0262 0.0 -0.0222
0.0462 0.0 -0.0286
0.0716 0.0 -0.0344
0.102 0.0 -0.0393
0.137 0.0 -0.0434
0.1763 0.0 -0.0465
0.2194 0.0 -0.0486
0.2658 0.0 -0.0498
0.3149 0.0 -0.05
0.3662 0.0 -0.0492
0.4191 0.0 -0.0477
0.4729 0.0 -0.0454
0.5271 0.0 -0.0425
0.5809 0.0 -0.0392
0.6338 0.0 -0.0355
0.6851 0.0 -0.0315
0.7342 0.0 -0.0274
0.7806 0.0 -0.0232
0.8237 0.0 -0.0192
0.863 0.0 -0.0152
0.898 0.0 -0.0116
0.9284 0.0 -0.0083
0.9538 0.0 -0.0054
0.9738 0.0 -0.0031
0.9883 0.0 -0.0014
0.9971 0.0 -0.0004
1.0 0.0 0.0
1.0 0.1034 0.0
0.9971 0.1034 0.0003
0.9883 0.1034 0.0012
0.9738 0.1034 0.0028
0.9537 0.1034 0.0048
0.9283 0.1034 0.0073
0.8979 0.1034 0.0102
0.8628 0.1034 0.0134
0.8235 0.1034 0.0168
0.7803 0.1034 0.0203
0.7339 0.1034 0.0238
0.6847 0.1034 0.0273
0.6333 0.1034 0.0305
0.5804 0.1034 0.0336
0.5265 0.1034 0.0362
0.4724 0.1034 0.0383
0.4185 0.1034 0.0399
0.3656 0.1034 0.0407
0.3143 0.1034 0.0408
0.2652 0.1034 0.0399
0.2188 0.1034 0.0381
0.1758 0.1034 0.0354
0.1365 0.1034 0.0318
0.1015 0.1034 0.0272
0.0712 0.1034 0.0219
0.0459 0.1034 0.0158
0.026 0.1034 0.0092
0.0116 0.1034 0.002
0.0029 0.1034 -0.0055
0.0001 0.1034 -0.0134
0.0031 0.1034 -0.0212
0.012 0.1034 -0.0286
0.0266 0.1034 -0.0353
0.0467 0.1034 -0.0415
0.0721 0.1034 -0.0468
0.1026 0.1034 -0.0514
0.1377 0.1034 -0.055
0.177 0.1034 -0.0576
0.2201 0.1034 -0.0591
0.2665 0.1034 -0.0596
0.3157 0.1034 -0.0592
0.367 0.1034 -0.0577
0.4198 0.1034 -0.0555
0.4736 0.1034 -0.0525
0.5277 0.1034 -0.0489
0.5815 0.1034 -0.0448
0.6343 0.1034 -0.0404
0.6855 0.1034 -0.0357
0.7346 0.1034 -0.031
0.7809 0.1034 -0.0262
0.824 0.1034 -0.0215
0.8632 0.1034 -0.0171
0.8982 0.1034 -0.013
0.9285 0.1034 -0.0092
0.9539 0.1034 -0.0061
0.9739 0.1034 -0.0035
0.9883 0.1034 -0.0016
0.9971 0.1034 -0.0004
1.0 0.1034 0.0
1.0 0.2069 0.0
0.9971 0.2069 0.0003
0.9883 0.2069 0.0012
0.9738 0.2069 0.0027
0.9537 0.2069 0.0046
0.9283 0.2069 0.007
0.8979 0.2069 0.0098
0.8628 0.2069 0.0129
0.8234 0.2069 0.0161
0.7802 0.2069 0.0195
0.7338 0.2069 0.0228
0.6846 0.2069 0.0261
0.6332 0.2069 0.0291
0.5803 0.2069 0.032
0.5264 0.2069 0.0344
0.4722 0.2069 0.0363
0.4184 0.2069 0.0377
0.3655 0.2069 0.0383
0.3142 0.2069 0.0381
0.265 0.2069 0.0371
0.2187 0.2069 0.0352
0.1756 0.2069 0.0323
0.1364 0.2069 0.0285
0.1014 0.2069 0.0238
0.0711 0.2069 0.0183
0.0459 0.2069 0.0122
0.0259 0.2069 0.0055
0.0116 0.2069 -0.0018
0.0029 0.2069 -0.0093
0.0001 0.2069 -0.0172
0.0032 0.2069 -0.025
0.0121 0.2069 -0.0323
0.0267 0.2069 -0.039
0.0468 0.2069 -0.0451
0.0723 0.2069 -0.0504
0.1028 0.2069 -0.0548
0.1379 0.2069 -0.0582
0.1772 0.2069 -0.0607
0.2204 0.2069 -0.0621
0.2668 0.2069 -0.0624
0.3159 0.2069 -0.0618
0.3672 0.2069 -0.0602
0.42 0.2069 -0.0577
0.4738 0.2069 -0.0545
0.5279 0.2069 -0.0507
0.5816 0.2069 -0.0464
0.6344 0.2069 -0.0418
0.6857 0.2069 -0.0369
0.7347 0.2069 -0.032
0.781 0.2069 -0.027
0.824 0.2069 -0.0222
0.8633 0.2069 -0.0176
0.8983 0.2069 -0.0133
0.9286 0.2069 -0.0095
0.9539 0.2069 -0.0062
0.9739 0.2069 -0.0036
0.9883 0.2069 -0.0016
0.9971 0.2069 -0.0004
1.0 0.2069 0.0
1.0 0.3103 0.0
0.9971 0.3103 0.0003
0.9883 0.3103 0.0012
0.9738 0.3103 0.0026
0.9537 0.3103 0.0045
0.9283 0.3103 0.0069
0.8978 0.3103 0.0096
0.8627 0.3103 0.0126
0.8234 0.3103 0.0157
0.7802 0.3103 0.0189
0.7337 0.3103 0.0222
0.6845 0.3103 0.0253
0.6331 0.3103 0.0283
0.5802 0.3103 0.031
0.5263 0.3103 0.0333
0.4721 0.3103 0.0351
0.4183 0.3103 0.0363
0.3654 0.3103 0.0368
0.3141 0.3103 0.0366
0.265 0.3103 0.0354
0.2186 0.3103 0.0334
0.1756 0.3103 0.0304
0.1363 0.3103 0.0265
0.1014 0.3103 0.0217
0.0711 0.3103 0.0162
0.0458 0.3103 0.01
0.0259 0.3103 0.0032
0.0116 0.3103 -0.004
0.003 0.3103 -0.0116
0.0002 0.3103 -0.0196
0.0033 0.3103 -0.0273
0.0122 0.3103 -0.0346
0.0268 0.3103 -0.0413
0.047 0.3103 -0.0473
0.0724 0.3103 -0.0525
0.1029 0.3103 -0.0568
0.138 0.3103 -0.0602
0.1774 0.3103 -0.0626
0.2205 0.3103 -0.0639
0.2669 0.3103 -0.0641
0.316 0.3103 -0.0633
0.3673 0.3103 -0.0616
0.4202 0.3103 -0.059
0.4739 0.3103 -0.0557
0.528 0.3103 -0.0518
0.5817 0.3103 -0.0474
0.6345 0.3103 -0.0426
0.6857 0.3103 -0.0377
0.7348 0.3103 -0.0326
0.7811 0.3103 -0.0275
0.8241 0.3103 -0.0226
0.8633 0.3103 -0.0179
0.8983 0.3103 -0.0136
0.9286 0.3103 -0.0097
0.9539 0.3103 -0.0063
0.9739 0.3103 -0.0036
0.9883 0.3103 -0.0016
0.9971 0.3103 -0.0004
1.0 0.3103 0.0
1.0 0.4138 0.0
0.9971 0.4138 0.0003
0.9883 0.4138 0.0012
0.9738 0.4138 0.0026
0.9537 0.4138 0.0045
0.9283 0.4138 0.0068
0.8978 0.4138 0.0094
0.8627 0.4138 0.0123
0.8233 0.4138 0.0154
0.7802 0.4138 0.0186
0.7337 0.4138 0.0218
0.6845 0.4138 0.0248
0.6331 0.4138 0.0277
0.5802 0.4138 0.0303
0.5263 0.4138 0.0325
0.4721 0.4138 0.0343
0.4182 0.4138 0.0354
0.3653 0.4138 0.0358
0.314 0.4138 0.0355
0.2649 0.4138 0.0343
0.2186 0.4138 0.0321
0.1755 0.4138 0.0291
0.1363 0.4138 0.0251
0.1013 0.4138 0.0203
0.0711 0.4138 0.0147
0.0458 0.4138 0.0085
0.0259 0.4138 0.0017
0.0116 0.4138 -0.0056
0.003 0.4138 -0.0132
0.0002 0.4138 -0.0211
0.0033 0.4138 -0.0289
0.0122 0.4138 -0.0362
0.0269 0.4138 -0.0428
0.047 0.4138 -0.0488
0.0725 0.4138 -0.054
0.103 0.4138 -0.0583
0.1381 0.4138 -0.0616
0.1775 0.4138 -0.0639
0.2206 0.4138 -0.0651
0.267 0.4138 -0.0653
0.3161 0.4138 -0.0644
0.3674 0.4138 -0.0626
0.4202 0.4138 -0.0599
0.474 0.4138 -0.0565
0.5281 0.4138 -0.0525
0.5818 0.4138 -0.048
0.6346 0.4138 -0.0432
0.6858 0.4138 -0.0381
0.7348 0.4138 -0.033
0.7811 0.4138 -0.0279
0.8241 0.4138 -0.0229
0.8634 0.4138 -0.0181
0.8983 0.4138 -0.0137
0.9286 0.4138 -0.0098
0.9539 0.4138 -0.0064
0.9739 0.4138 -0.0037
0.9883 0.4138 -0.0017
0.9971 0.4138 -0.0004
1.0 0.4138 0.0
1.0 0.5172 0.0
0.9971 0.5172 0.0003
0.9883 0.5172 0.0011
0.9738 0.5172 0.0025
0.9537 0.5172 0.0044
0.9283 0.5172 0.0067
0.8978 0.5172 0.0093
0.8627 0.5172 0.0122
0.8233 0.5172 0.0152
0.7801 0.5172 0.0184
0.7337 0.5172 0.0215
0.6844 0.5172 0.0245
0.6331 0.5172 0.0273
0.5801 0.5172 0.0299
0.5262 0.5172 0.032
0.4721 0.5172 0.0337
0.4182 0.5172 0.0347
0.3653 0.5172 0.0351
0.314 0.5172 0.0347
0.2649 0.5172 0.0334
0.2185 0.5172 0.0312
0.1755 0.5172 0.0281
0.1363 0.5172 0.0241
0.1013 0.5172 0.0193
0.071 0.5172 0.0137
0.0458 0.5172 0.0074
0.0259 0.5172 0.0006
0.0116 0.5172 -0.0067
0.003 0.5172 -0.0143
0.0002 0.5172 -0.0223
0.0034 0.5172 -0.03
0.0123 0.5172 -0.0373
0.0269 0.5172 -0.0439
0.0471 0.5172 -0.0499
0.0726 0.5172 -0.055
0.1031 0.5172 -0.0593
0.1382 0.5172 -0.0626
0.1775 0.5172 -0.0648
0.2207 0.5172 -0.066
0.2671 0.5172 -0.0661
0.3162 0.5172 -0.0652
0.3675 0.5172 -0.0633
0.4203 0.5172 -0.0606
0.4741 0.5172 -0.0571
0.5281 0.5172 -0.0531
0.5819 0.5172 -0.0485
0.6346 0.5172 -0.0436
0.6858 0.5172 -0.0385
0.7349 0.5172 -0.0333
0.7812 0.5172 -0.0281
0.8242 0.5172 -0.0231
0.8634 0.5172 -0.0183
0.8983 0.5172 -0.0139
0.9286 0.5172 -0.0099
0.9539 0.5172 -0.0065
0.9739 0.5172 -0.0037
0.9883 0.5172 -0.0017
0.9971 0.5172 -0.0004
1.0 0.5172 0.0
1.0 0.6207 0.0
0.9971 0.6207 0.0003
0.9883 0.6207 0.0011
0.9738 0.6207 0.0025
0.9537 0.6207 0.0044
0.9283 0.6207 0.0066
0.8978 0.6207 0.0092
0.8627 0.6207 0.0121
0.8233 0.6207 0.0151
0.7801 0.6207 0.0182
0.7336 0.6207 0.0212
0.6844 0.6207 0.0242
0.633 0.6207 0.027
0.5801 0.6207 0.0295
0.5262 0.6207 0.0316
0.472 0.6207 0.0332
0.4182 0.6207 0.0343
0.3653 0.6207 0.0346
0.314 0.6207 0.0341
0.2648 0.6207 0.0328
0.2185 0.6207 0.0306
0.1755 0.6207 0.0274
0.1362 0.6207 0.0234
0.1013 0.6207 0.0185
0.071 0.6207 0.0129
0.0458 0.6207 0.0066
0.0259 0.6207 -0.0003
0.0116 0.6207 -0.0075
0.003 0.6207 -0.0152
0.0003 0.6207 -0.0231
0.0034 0.6207 -0.0309
0.0123 0.6207 -0.0381
0.0269 0.6207 -0.0447
0.0471 0.6207 -0.0507
0.0726 0.6207 -0.0558
0.1031 0.6207 -0.06
0.1382 0.6207 -0.0633
0.1776 0.6207 -0.0655
0.2207 0.6207 -0.0667
0.2671 0.6207 -0.0667
0.3163 0.6207 -0.0658
0.3675 0.6207 -0.0639
0.4204 0.6207 -0.0611
0.4741 0.6207 -0.0576
0.5282 0.6207 -0.0535
0.5819 0.6207 -0.0489
0.6347 0.6207 -0.0439
0.6859 0.6207 -0.0388
0.7349 0.6207 -0.0335
0.7812 0.6207 -0.0283
0.8242 0.6207 -0.0232
0.8634 0.6207 -0.0184
0.8983 0.6207 -0.0139
0.9286 0.6207 -0.0099
0.9539 0.6207 -0.0065
0.9739 0.6207 -0.0037
0.9883 0.6207 -0.0017
0.9971 0.6207 -0.0004
1.0 0.6207 0.0
1.0 0.7241 0.0
0.9971 0.7241 0.0003
0.9883 0.7241 0.0011
0.9738 0.7241 0.0025
0.9537 0.7241 0.0043
0.9283 0.7241 0.0066
0.8978 0.7241 0.0092
0.8627 0.7241 0.012
0.8233 0.7241 0.015
0.7801 0.7241 0.018
0.7336 0.7241 0.0211
0.6844 0.7241 0.024
0.633 0.7241 0.0268
0.5801 0.7241 0.0292
0.5262 0.7241 0.0313
0.472 0.7241 0.0329
0.4181 0.7241 0.0339
0.3652 0.7241 0.0342
0.3139 0.7241 0.0337
0.2648 0.7241 0.0323
0.2185 0.7241 0.0301
0.1754 0.7241 0.0269
0.1362 0.7241 0.0229
0.1013 0.7241 0.018
0.071 0.7241 0.0123
0.0458 0.7241 0.006
0.0259 0.7241 -0.0009
0.0116 0.7241 -0.0082
0.003 0.7241 -0.0158
0.0003 0.7241 -0.0237
0.0034 0.7241 -0.0315
0.0123 0.7241 -0.0388
0.027 0.7241 -0.0454
0.0472 0.7241 -0.0513
0.0726 0.7241 -0.0564
0.1031 0.7241 -0.0606
0.1383 0.7241 -0.0638
0.1776 0.7241 -0.066
0.2208 0.7241 -0.0672
0.2672 0.7241 -0.0672
0.3163 0.7241 -0.0662
0.3676 0.7241 -0.0643
0.4204 0.7241 -0.0615
[...]
POINT_DATA 2010
SCALARS cp1 float
LOOKUP_TABLE default
0.423233
0.338628
0.22413
0.153702
0.0966684
0.0454412
-0.00387274
-0.0492266
-0.0939103
-0.134775
-0.177832
-0.223196
-0.267865
-0.317554
-0.367444
-0.421383
-0.482656
-0.546094
-0.617989
-0.692342
-0.770419
-0.867671
-0.979593
-1.10969
-1.28182
-1.5204
-1.89924
-2.75636
-3.82838
-1.65048
1.35881
1.37751
0.866758
0.589614
0.403686
0.273489
0.17759
0.110703
0.067008
0.0341959
0.0116601
0.00220137
-0.00352678
-0.00466214
-0.000479203
0.00363498
0.0104942
0.0200981
0.0300079
0.0434691
0.0589941
0.0755234
0.0967845
0.125324
0.156233
0.192937
0.243519
0.340149
0.415514
0.429269
0.354087
0.241833
0.160746
0.0999983
0.0475503
-0.00284992
-0.0495416
-0.0937733
-0.136464
-0.180166
-0.224664
-0.27
-0.320543
-0.372367
-0.427226
-0.489662
-0.555465
-0.627842
-0.706461
-0.792955
-0.895066
-1.0145
-1.15673
-1.34287
-1.60823
-2.00777
-2.62582
-2.75735
-0.732822
1.37465
1.22632
0.829141
0.569636
0.391479
0.26678
0.176529
0.112016
0.068214
0.0371573
0.015153
0.00384663
-0.00152921
-0.00281308
0.000179797
0.00490358
0.0119954
0.021141
0.0310999
0.0445979
0.0605082
0.07755
0.0996498
0.128065
0.160043
0.200016
0.259942
0.354452
0.420863
0.429911
0.349168
0.233564
0.155686
0.0975479
0.0453939
-0.00541519
-0.0520328
-0.0951453
-0.137956
-0.182077
-0.225664
-0.270918
-0.322185
-0.374505
-0.42966
-0.492145
-0.558188
-0.630598
-0.710678
-0.799429
-0.901508
-1.01818
-1.15577
-1.33293
-1.58167
-1.94629
-2.55456
-2.94638
-1.03654
1.34502
1.24869
0.806724
0.542316
0.368936
0.251602
0.167177
0.105144
0.062832
0.0345396
0.0139397
0.0024834
-0.00195999
-0.00292821
-0.000464929
0.00477455
0.01221
0.0209077
0.0308324
0.0446214
0.0603756
0.0774679
0.099113
0.126759
0.159171
0.198749
0.2575
0.354367
0.423749
0.427488
0.344897
0.2294
0.154938
0.0964999
0.0431225
-0.00648506
-0.0522785
-0.094965
-0.138337
-0.182883
-0.225775
-0.27159
-0.322277
-0.374578
-0.4309
-0.491787
-0.557296
-0.630746
-0.709994
-0.797628
-0.89719
-1.01011
-1.14364
-1.31792
-1.5656
-1.93078
-2.53988
-2.92383
-0.850646
1.39074
1.23345
0.797968
0.535181
0.363128
0.245891
0.162037
0.100345
0.0581073
0.0307147
0.0119475
0.000773701
-0.00322259
-0.00371551
-0.00168422
0.00396116
0.0117601
0.0203217
0.0307589
0.0442731
0.0597801
0.0780027
0.0992811
0.125724
0.160051
0.201088
0.259057
0.356698
0.426625
0.426785
0.343523
0.229847
0.155453
0.094121
0.0410628
-0.00606087
-0.0509905
-0.0945718
-0.139114
-0.183471
-0.225621
-0.271708
-0.321682
-0.37381
-0.431005
-0.490907
-0.556023
-0.630378
-0.708625
-0.793569
-0.891554
-1.00332
-1.13764
-1.31057
-1.5534
-1.91506
-2.51751
-2.88386
-0.813197
1.39567
1.22392
0.790237
0.530117
0.357929
0.240286
0.15655
0.0968603
0.0550977
0.0272501
0.00947949
-0.000931742
-0.00473554
-0.00492481
-0.00293024
0.0028939
0.0110662
0.020045
0.0306676
0.0434411
0.0588238
0.0779806
0.0996132
0.125422
0.159221
0.200042
0.257459
0.357818
0.431893
0.422409
0.341849
0.232735
0.157407
0.0933667
0.0413152
-0.00549454
-0.0511648
-0.0950727
-0.139436
-0.182642
-0.225106
-0.271638
-0.321317
-0.372917
-0.429493
-0.489975
-0.555174
-0.627734
-0.70552
-0.790153
-0.885437
-0.996733
-1.13247
-1.30523
-1.54068
-1.89643
-2.49827
-2.85356
-0.760611
1.40118
1.21703
0.784531
0.523672
0.353051
0.235814
0.152046
0.0936097
0.0521602
0.0245607
0.0069894
-0.00323587
-0.00656768
-0.00649276
-0.00450226
0.00177971
0.0102845
0.0191338
0.0302403
0.0432801
0.0583413
0.0769962
0.0993763
0.125616
0.158425
0.199705
0.257306
0.357928
0.433301
0.419185
0.340274
0.233278
0.157653
0.0940104
0.0424761
-0.00568965
-0.0522044
-0.09594
-0.138554
-0.180822
-0.224524
-0.271465
-0.320118
-0.371301
-0.42747
-0.488917
-0.554319
-0.624064
-0.701688
-0.786867
-0.880645
-0.99205
-1.12685
-1.29792
-1.52897
-1.87922
-2.48211
-2.81727
-0.730621
1.40508
1.21121
0.778941
0.518239
0.348418
0.232236
0.14928
0.0903248
0.0486297
0.0220137
0.00481082
-0.00579632
-0.00884977
-0.00828409
-0.00587872
0.000814541
0.00902709
0.0175242
0.0293854
0.0433647
0.0584597
0.0760267
0.0985227
0.125808
0.158939
0.200934
0.258335
0.357505
0.431775
0.418969
0.339786
0.231703
0.156101
0.0950851
0.0434965
-0.00620348
-0.0522908
-0.0955649
-0.137032
-0.17936
-0.22445
-0.27064
-0.318088
-0.369679
-0.425488
-0.486995
-0.552513
-0.620779
-0.697817
-0.783086
-0.876915
-0.987731
-1.12012
-1.28865
-1.51847
-1.86196
-2.46006
-2.7919
-0.711337
1.39955
1.20476
0.770571
0.512227
0.343505
0.227409
0.145962
0.0879232
0.0457257
0.0187721
0.00228772
-0.0080214
-0.0114416
-0.0103924
-0.00690482
3.58004e-06
0.00760032
0.0162737
0.0284725
0.042728
0.0584418
0.0752199
0.0971474
0.125615
0.159067
0.200514
0.25919
0.35881
0.431882
0.419293
0.339986
0.230784
0.1546
0.0953524
0.0445041
-0.0060204
-0.0520578
-0.0945574
-0.135651
-0.178162
-0.223666
-0.268984
-0.316109
-0.368351
-0.42337
-0.484194
-0.549362
-0.617532
-0.694659
-0.779286
-0.872984
-0.981611
-1.11173
-1.28027
-1.50806
-1.84564
-2.43639
-2.76143
-0.684432
1.40135
1.1985
0.764678
0.507122
0.338529
0.22222
0.14161
0.0846825
0.0430895
0.015224
-0.000484144
-0.00949973
-0.0137644
-0.0128664
-0.0083045
-0.00111864
0.00631197
0.0152594
0.0276436
0.0416188
0.0574402
0.0744482
0.0964808
0.125884
0.157807
0.197782
0.260001
0.361588
0.433102
0.419526
0.340299
0.230764
0.153794
0.0943816
0.0447548
-0.00514396
-0.0511478
-0.093327
-0.135126
-0.17721
-0.221498
-0.266822
-0.314348
-0.366322
-0.420984
-0.48172
-0.54598
-0.613952
-0.690711
-0.774748
-0.868313
-0.974978
-1.10448
-1.27351
-1.49627
-1.83024
-2.41419
-2.72136
-0.653736
1.40317
1.19266
0.75941
0.501651
0.33443
0.218457
0.137364
0.0804481
0.0395304
0.0118908
-0.00319103
-0.0110259
-0.015855
-0.0153117
-0.00986202
-0.00257296
0.00451482
0.0135042
0.0268433
0.040898
0.0557188
0.073811
0.0970235
0.125718
0.156723
0.196524
0.260527
0.362988
0.43328
0.419815
0.340268
0.230775
0.153812
0.093277
0.0440338
-0.00376111
-0.0491564
-0.0919091
-0.134715
-0.176423
-0.219083
-0.264671
-0.312795
-0.363758
-0.418354
-0.479053
-0.542508
-0.609647
-0.685233
-0.769152
-0.863068
-0.969675
-1.09929
-1.2654
-1.48257
-1.81681
-2.39114
-2.6693
-0.609815
1.41194
1.18552
0.752409
0.495115
0.329154
0.21395
0.133001
0.0764021
0.0361099
0.00904432
-0.0062062
-0.0136445
-0.0179545
-0.0172954
-0.011861
-0.00479133
0.00282866
0.0123921
0.0254701
0.0395284
0.0545042
0.0733536
0.0965555
0.124371
0.156896
0.197732
0.260928
0.363127
0.433078
0.419785
0.339325
0.230886
0.155692
0.0935506
0.0431675
-0.00281068
-0.0474266
-0.0907359
-0.133113
-0.175058
-0.217538
-0.262204
-0.310444
-0.361467
-0.415634
-0.475455
-0.538671
-0.605419
-0.679617
-0.763829
-0.857786
-0.963073
-1.09258
-1.25525
-1.46941
-1.80562
-2.36758
-2.63721
-0.575021
1.41153
1.17879
0.746285
0.489294
0.323271
0.20846
0.127992
0.0720521
0.0328588
0.0063848
-0.00929382
-0.0170886
-0.0202219
-0.0187384
-0.0144699
-0.00799458
0.00143119
0.0120277
0.0233167
0.0375223
0.0545897
0.0731471
0.0946799
0.123045
0.157571
0.198521
0.260743
0.36291
0.433098
0.418815
0.337332
0.230674
0.158953
0.0960905
0.043341
-0.00283217
-0.0464739
-0.0894545
-0.130805
-0.17288
-0.216192
-0.259505
-0.307546
-0.359101
-0.412303
-0.470957
-0.534568
-0.601748
-0.674788
-0.758156
-0.850887
-0.953671
-1.08347
-1.24567
-1.45863
-1.79275
-2.33801
-2.59407
-0.553295
1.42621
1.1704
0.736765
0.48182
0.317939
0.203476
0.122172
0.0669716
0.0291511
0.00290718
-0.0126372
-0.0204043
-0.0229644
-0.020818
-0.0167916
-0.0106815
-0.000595998
0.0105988
0.0214728
0.036092
0.0540676
0.0722447
0.0935011
0.122772
0.15779
0.198311
0.259979
0.362294
0.433059
0.418332
0.335876
0.229341
0.160225
0.0991825
0.0455826
-0.00218866
-0.0459315
-0.0880916
-0.128888
-0.170662
-0.213732
-0.256572
-0.304803
-0.356323
-0.408033
-0.465861
-0.530013
-0.597867
-0.670139
-0.751514
-0.842661
-0.94468
-1.07399
-1.23411
-1.44764
-1.7771
-2.30512
-2.5534
-0.523113
1.43029
1.16166
0.728661
0.474622
0.311051
0.197876
0.116604
0.0616348
0.0247384
-0.00097502
-0.0160952
-0.0235968
-0.0263558
-0.0239883
-0.0188086
-0.0126396
-0.00327026
0.00826462
0.020268
0.0349157
0.05205
0.0706147
0.0933582
0.123107
0.157783
0.197897
0.259491
0.361657
0.433515
0.418675
0.335662
0.228364
0.159999
0.100328
0.0472073
-0.000399227
-0.0444031
-0.0864122
-0.127303
-0.168458
-0.210542
-0.253959
-0.301691
-0.352164
-0.403818
-0.460888
-0.524958
-0.592776
-0.664149
-0.745018
-0.835305
-0.936424
-1.0627
-1.21917
-1.43221
-1.75836
-2.2766
-2.50809
-0.470071
1.43318
1.15252
0.719934
0.467002
0.303226
0.191552
0.111391
0.0557742
0.0194565
-0.00477336
-0.0195648
-0.0274482
-0.0301955
-0.0270671
-0.0210736
-0.0152732
-0.00616232
0.00621555
0.019088
0.0333211
0.0501262
0.0695798
0.0924637
0.121847
0.157703
0.198288
0.258869
0.361242
0.433963
0.419047
0.336024
0.228665
0.160318
0.100396
0.0472306
0.000826863
-0.0419022
-0.0839736
-0.125109
-0.165319
-0.207571
-0.252095
-0.297836
-0.346713
-0.39959
-0.4562
-0.519347
-0.585827
-0.656877
-0.739047
-0.828046
-0.926628
-1.05031
-1.20504
-1.41474
-1.7362
-2.25091
-2.45207
-0.431678
1.43827
1.1419
0.7091
0.458092
0.295463
0.185099
0.105822
0.049826
0.0138612
-0.00956969
-0.0242752
-0.0318674
-0.0335496
-0.0297916
-0.0241589
-0.0186603
-0.00873195
0.00453111
0.0175395
0.0314432
0.0483206
0.0685295
0.0908685
0.119247
0.156378
0.199205
0.259982
0.361498
0.434339
0.419352
0.336465
0.229417
0.16105
0.100941
0.0476713
0.00138072
-0.0401697
-0.0812256
-0.122046
-0.162089
-0.204781
-0.249012
-0.293426
-0.341528
-0.3944
-0.45096
-0.513451
-0.578361
-0.64879
-0.730549
-0.818064
-0.916964
-1.03944
-1.19081
-1.39532
-1.71063
-2.22244
-2.39779
-0.371789
1.43317
1.13137
0.698362
0.447818
0.286717
0.17755
0.0995121
0.0440597
0.00810886
-0.0150937
-0.0300339
-0.0367224
-0.0368395
-0.0331741
-0.0280138
-0.021751
-0.0110878
0.0020925
0.0150847
0.0295553
0.0464385
0.0667073
0.0901642
0.1179
0.153693
0.199117
0.261756
0.361944
0.434661
0.419322
0.33657
0.229718
0.160933
0.101188
0.0494439
0.00326849
-0.0383612
-0.0784201
-0.119185
-0.159785
-0.201472
-0.243915
-0.288322
-0.33644
-0.388148
-0.444967
-0.506943
-0.570812
-0.640579
-0.719646
-0.806308
-0.907576
-1.02843
-1.17347
-1.37328
-1.68364
-2.18662
-2.33353
-0.329774
1.43469
1.11783
0.686427
0.437413
0.276499
0.167862
0.0921671
0.0377316
0.00234082
-0.0204649
-0.0356255
-0.0418593
-0.0413731
-0.0378973
-0.0318578
-0.0243812
-0.0140823
-0.00108135
0.0119515
0.0268747
0.0444926
0.0654219
0.0902125
0.11763
0.151532
0.198285
0.262488
0.361817
0.434515
0.419184
0.336511
0.229481
0.160008
0.101175
0.052022
0.00630184
-0.0363263
-0.0758556
-0.115975
-0.156827
-0.19753
-0.237963
-0.282376
-0.330912
-0.381898
-0.437614
-0.498386
-0.562606
-0.631589
-0.708668
-0.795005
-0.895551
-1.01369
-1.15558
-1.35102
-1.65245
-2.14116
-2.26732
-0.264986
1.43561
1.10353
0.673168
0.425866
0.265722
0.157885
0.0831843
0.0297537
-0.00423981
-0.026432
-0.0410848
-0.0468634
-0.0468485
-0.0434457
-0.035952
-0.0275043
-0.0174154
-0.00451761
0.00849166
0.024158
0.0425873
0.0637271
0.089035
0.117109
0.151026
0.197665
0.262358
0.361478
0.434222
0.418954
0.336223
0.228786
0.16
0.102445
0.053684
0.0084643
-0.0340638
-0.0727815
-0.111671
-0.152406
-0.192588
-0.232312
-0.27637
-0.324956
-0.375001
-0.428441
-0.488639
-0.553493
-0.620711
-0.696979
-0.783567
-0.879987
-0.995313
-1.13647
-1.32831
-1.62102
-2.09018
-2.18816
-0.216993
1.44009
1.08568
0.658558
0.411586
0.25338
0.147378
0.0731142
0.0210628
-0.012002
-0.0339545
-0.0472361
-0.0518376
-0.0522953
-0.0492505
-0.0411691
-0.0315335
-0.0205522
-0.00814824
0.00498742
0.0218536
0.0400969
0.0610542
0.0865722
0.115476
0.151005
0.197656
0.262073
0.361299
0.433749
0.418601
0.335727
0.227789
0.16057
0.104972
0.0547782
0.0103315
-0.0310921
-0.0694456
-0.107267
-0.147373
-0.186713
-0.226316
-0.269748
-0.31752
-0.366187
-0.418246
-0.478628
-0.542921
-0.608312
-0.683759
-0.769617
-0.862268
-0.974473
-1.11446
-1.30434
-1.586
-2.03198
-2.10708
-0.155242
1.44454
1.06685
0.639625
0.396219
0.2399
0.135448
0.0626041
0.0118787
-0.0210081
-0.042421
-0.0543483
-0.0578381
-0.0581096
-0.0551303
-0.0468147
-0.0360195
-0.0243652
-0.0125068
0.00121842
0.0189357
0.0372948
0.0585283
0.0836496
0.113145
0.150448
0.196402
0.261264
0.36206
0.433596
0.418848
0.335625
0.227223
0.160804
0.106389
0.0567806
0.0133513
-0.0281024
-0.0665487
-0.102744
-0.141423
-0.180012
-0.219122
-0.261752
-0.308328
-0.35591
-0.407454
-0.467336
-0.530186
-0.594414
-0.668603
-0.753037
-0.843525
-0.952046
-1.09039
-1.27779
-1.54398
-1.96354
-2.02429
-0.0827489
1.45025
1.04742
0.619039
0.378434
0.225255
0.12267
0.0514886
0.00114772
-0.0310893
-0.0510041
-0.0624184
-0.0656496
-0.0650265
-0.061025
-0.0519527
-0.0408596
-0.029803
-0.0179701
-0.00288171
0.0157028
0.0345196
0.0551025
0.0805008
0.111992
0.148342
0.192438
0.260388
0.36399
0.434328
0.418283
0.334449
0.227044
0.161726
0.107008
0.0587588
0.0167953
-0.0244042
-0.0627842
-0.0979789
-0.134621
-0.171901
-0.210993
-0.25299
-0.297219
-0.344111
-0.395577
-0.453693
-0.514497
-0.578267
-0.651431
-0.734014
-0.822962
-0.927837
-1.06245
-1.24403
-1.49496
-1.89268
-1.92072
-0.0127836
1.45549
1.02369
0.595983
0.358171
0.209161
0.108054
0.0380964
-0.0109094
-0.0415169
-0.0603483
-0.0717931
-0.0744506
-0.0724665
-0.0673888
-0.0577055
-0.0469592
-0.0360583
-0.0231213
-0.00747614
0.0112095
0.0305919
0.0508209
0.0774086
0.110218
0.14486
0.189537
0.260439
0.364961
0.434598
0.416395
0.331507
0.226184
0.164052
0.108829
0.0603931
0.0195994
-0.0199214
-0.0576311
-0.0923417
-0.127124
-0.162784
-0.201771
-0.242517
-0.284024
-0.330529
-0.381434
-0.437132
-0.496357
-0.560069
-0.631976
-0.71081
-0.798001
-0.900588
-1.02905
-1.20265
-1.44304
-1.82299
-1.81665
0.0755054
1.44725
0.993427
0.569972
0.335271
0.190423
0.0905019
0.0218354
-0.0239222
-0.0531234
-0.0711107
-0.0816667
-0.0836507
-0.0802911
-0.074143
-0.064772
-0.0547918
-0.0425623
-0.0279494
-0.0134522
0.00471303
0.0256245
0.0467717
0.0737025
0.106172
0.141901
0.188173
0.257483
0.362946
0.435939
0.412953
0.328936
0.226126
0.165105
0.110292
0.0624376
0.0225217
-0.0151636
-0.0516189
-0.0852323
-0.118539
-0.152878
-0.190527
-0.229304
-0.269387
-0.314892
-0.363696
-0.417308
-0.47598
-0.538783
-0.607614
-0.682647
-0.768177
-0.867821
-0.990263
-1.15702
-1.38955
-1.74654
-1.67984
0.168033
1.44207
0.958725
0.539239
0.310566
0.168387
0.0704818
0.00412613
-0.0384536
-0.0669125
-0.0837378
-0.09193
-0.0932473
-0.0888806
-0.0815946
-0.0729212
-0.0631415
-0.0496161
-0.0345411
-0.0208668
-0.00254563
0.0191603
0.0413399
0.0689012
0.100907
0.138201
0.185116
0.250981
0.359098
0.438646
0.406648
0.326634
0.227613
0.164091
0.108987
0.0639909
0.0255194
-0.0101579
-0.0446069
-0.0772031
-0.108881
-0.141271
-0.176623
-0.213449
-0.252482
-0.295555
-0.342033
-0.393979
-0.451022
-0.511272
-0.576501
-0.649793
-0.733726
-0.829231
-0.946517
-1.10551
-1.32602
-1.64896
-1.5339
0.279411
1.4312
0.91884
0.505164
0.280331
0.140724
0.0475508
-0.0149009
-0.0550948
-0.0823825
-0.0979691
-0.103337
-0.102564
-0.0979249
-0.0909115
-0.0822258
-0.0711246
-0.0572083
-0.0431371
-0.0295569
-0.0113197
0.0100503
0.0325909
0.061476
0.0940893
0.132278
0.180797
0.246419
0.355661
0.438091
0.399131
0.321073
0.224591
0.160493
0.107237
0.064963
0.0274854
-0.00515129
-0.0363992
-0.067548
-0.0971139
-0.126857
-0.159674
-0.194372
-0.231194
-0.271235
-0.316006
-0.365633
-0.419167
-0.475894
-0.537755
-0.610013
-0.69184
-0.78289
-0.8938
-1.04129
-1.24387
-1.52931
-1.36177
0.385273
1.4196
0.867557
0.461379
0.241868
0.1082
0.0206963
-0.0375054
-0.0750412
-0.0991755
-0.111783
-0.114811
-0.112384
-0.107869
-0.10085
-0.091278
-0.0797487
-0.066735
-0.0532943
-0.0400154
-0.0233482
-0.00256504
0.0201613
0.0493874
0.0843045
0.124494
0.173834
0.241899
0.353262
0.436858
0.40588
0.317099
0.22184
0.159262
0.108407
0.0675217
0.0322548
0.00343833
-0.0246398
-0.0542031
-0.0818883
-0.109127
-0.139223
-0.171165
-0.205019
-0.242135
-0.283957
-0.328877
-0.377797
-0.431238
-0.489384
-0.5578
-0.635861
-0.721883
-0.825315
-0.960977
-1.14531
-1.39198
-1.16323
0.519625
1.39381
0.802311
0.405777
0.194298
0.0678879
-0.0126133
-0.0650483
-0.0976945
-0.116455
-0.124404
-0.125372
-0.122891
-0.118089
-0.109801
-0.0998686
-0.0896664
-0.0784028
-0.0658678
-0.0538606
-0.0400315
-0.0212258
0.00176618
0.0305535
0.0670787
0.111695
0.164833
0.236572
0.350554
0.440836
0.261397
0.202595
0.145234
0.108472
0.0713898
0.038514
0.0105451
-0.0126034
-0.0354731
-0.0599457
-0.0830834
-0.105044
-0.128844
-0.154725
-0.182889
-0.213787
-0.248079
-0.284378
-0.32514
-0.37063
-0.419192
-0.476273
-0.542121
-0.617027
-0.708127
-0.82689
-0.981219
-1.14125
-0.810279
0.64234
1.26623
0.699711
0.318593
0.12195
0.0113397
-0.0557035
-0.0971737
-0.121557
-0.134679
-0.139514
-0.139319
-0.137207
-0.13279
-0.125515
-0.117605
-0.110081
-0.1023
-0.0947519
-0.0881698
-0.0812201
-0.0721822
-0.0599745
-0.0454746
-0.0264288
0.00330407
0.047623
0.11991
0.242551
0.339147
-0.00990687
-0.0208281
-0.00900732
0.0103686
-0.00320227
-0.0217798
-0.038723
-0.0535428
-0.0680012
-0.0843716
-0.100225
-0.113711
-0.12798
-0.145097
-0.165148
-0.186827
-0.210714
-0.23572
-0.265492
-0.298749
-0.331635
-0.371738
-0.418396
-0.472053
-0.539987
-0.633669
-0.774072
-1.02405
-0.747593
0.949539
1.45074
0.500426
0.120474
-0.0134927
-0.0791167
-0.11673
-0.139203
-0.15086
-0.15736
-0.159187
-0.157392
-0.155605
-0.152323
-0.147498
-0.142673
-0.138648
-0.135643
-0.135602
-0.137619
-0.140673
-0.147422
-0.154949
-0.16714
-0.183596
-0.190469
-0.178164
-0.127358
0.0232098
0.149418
-15.03
-8.12894
-0.570724
-0.91277
-0.66497
-0.475073
-0.380799
-0.316064
-0.264165
-0.235443
-0.215921
-0.199815
-0.193924
-0.197005
-0.204316
-0.213573
-0.228111
-0.246967
-0.269489
-0.293876
-0.319299
-0.350574
-0.383616
-0.418133
-0.459591
-0.51692
-0.599862
-0.778485
-0.338317
0.408222
-21.4624
-13.8838
-5.23784
-3.2821
-2.10877
-1.4455
-1.06162
-0.817733
-0.655828
-0.547815
-0.469305
-0.411202
-0.37165
-0.345296
-0.327992
-0.317183
-0.313917
-0.315818
-0.322177
-0.331374
-0.342572
-0.358346
-0.376239
-0.396634
-0.42372
-0.461731
-0.513225
-0.580755
-0.259934
0.418281
-28.3605
-17.4835
-7.17743
-4.31664
-2.82098
-1.98743
-1.46875
-1.12695
-0.902885
-0.748396
-0.634789
-0.550016
-0.489883
-0.445828
-0.413076
-0.390069
-0.375224
-0.366001
-0.361655
-0.360162
-0.361152
-0.366736
-0.373933
-0.382969
-0.396622
-0.417458
-0.450579