# vtk DataFile Version 2.0
scalar
ASCII
DATASET UNSTRUCTURED_GRID
POINTS 2010 float
1.0 0.0 0.0
0.9971 0.0 0.0004
0.9883 0.0 0.0014
0.9738 0.0 0.0031
0.9538 0.0 0.0054
0.9284 0.0 0.0083
0.898 0.0 0.0116
0.863 0.0 0.0152
0.8237 0.0 0.0192
0.7806 0.0 0.0232
0.7342 0.0 0.0274
0.6851 0.0 0.0315
0.6338 0.0 0.0355
0.5809 0.0 0.0392
0.5271 0.0 0.0425
0.4729 0.0 0.0454
0.4191 0.0 0.0477
0.3662 0.0 0.0492
0.3149 0.0 0.05
0.2658 0.0 0.0498
0.2194 0.0 0.0486
0.1763 0.0 0.0465
0.137 0.0 0.0434
0.102 0.0 0.0393
0.0716 0.0 0.0344
0.0462 0.0 0.0286
0.0262 0.0 0.0222
0.0117 0.0 0.0153
0.0029 0.0 0.0079
0.0 0.0 0.0
0.0029 0.0 -0.0079
0.0117 0.0 -0.0153
0.0262 0.0 -0.0222
0.0462 0.0 -0.0286
0.0716 0.0 -0.0344
0.102 0.0 -0.0393
0.137 0.0 -0.0434
0.1763 0.0 -0.0465
0.2194 0.0 -0.0486
0.2658 0.0 -0.0498
0.3149 0.0 -0.05
0.3662 0.0 -0.0492
0.4191 0.0 -0.0477
0.4729 0.0 -0.0454
0.5271 0.0 -0.0425
0.5809 0.0 -0.0392
0.6338 0.0 -0.0355
0.6851 0.0 -0.0315
0.7342 0.0 -0.0274
0.7806 0.0 -0.0232
0.8237 0.0 -0.0192
0.863 0.0 -0.0152
0.898 0.0 -0.0116
0.9284 0.0 -0.0083
0.9538 0.0 -0.0054
0.9738 0.0 -0.0031
0.9883 0.0 -0.0014
0.9971 0.0 -0.0004
1.0 0.0 0.0
1.0 0.1034 0.0
0.9971 0.1034 0.0003
0.9883 0.1034 0.0011
0.9737 0.1034 0.0024
0.9537 0.1034 0.0041
0.9282 0.1034 0.0062
0.8978 0.1034 0.0087
0.8626 0.1034 0.0113
0.8232 0.1034 0.0141
0.78 0.1034 0.017
0.7335 0.1034 0.0198
0.6843 0.1034 0.0225
0.6329 0.1034 0.025
0.5799 0.1034 0.0272
0.526 0.1034 0.029
0.4718 0.1034 0.0304
0.418 0.1034 0.0311
0.3651 0.1034 0.0311
0.3138 0.1034 0.0304
0.2647 0.1034 0.0288
0.2183 0.1034 0.0263
0.1753 0.1034 0.023
0.1361 0.1034 0.0187
0.1012 0.1034 0.0136
0.071 0.1034 0.0078
0.0458 0.1034 0.0014
0.0259 0.1034 -0.0056
0.0117 0.1034 -0.0129
0.0031 0.1034 -0.0206
0.0004 0.1034 -0.0286
0.0036 0.1034 -0.0363
0.0125 0.1034 -0.0435
0.0272 0.1034 -0.05
0.0474 0.1034 -0.0559
0.0729 0.1034 -0.0609
0.1034 0.1034 -0.0649
0.1386 0.1034 -0.068
0.178 0.1034 -0.07
0.2211 0.1034 -0.0709
0.2675 0.1034 -0.0707
0.3166 0.1034 -0.0695
0.3679 0.1034 -0.0673
0.4207 0.1034 -0.0643
0.4744 0.1034 -0.0604
0.5285 0.1034 -0.056
0.5822 0.1034 -0.0511
0.6349 0.1034 -0.0459
0.6861 0.1034 -0.0405
0.7351 0.1034 -0.035
0.7813 0.1034 -0.0295
0.8243 0.1034 -0.0242
0.8635 0.1034 -0.0191
0.8984 0.1034 -0.0145
0.9287 0.1034 -0.0103
0.954 0.1034 -0.0068
0.9739 0.1034 -0.0039
0.9884 0.1034 -0.0017
0.9971 0.1034 -0.0004
1.0 0.1034 0.0
1.0 0.2069 0.0
0.9971 0.2069 0.0002
0.9883 0.2069 0.001
0.9737 0.2069 0.0022
0.9536 0.2069 0.0037
0.9282 0.2069 0.0057
0.8977 0.2069 0.0078
0.8625 0.2069 0.0102
0.8231 0.2069 0.0127
0.7799 0.2069 0.0152
0.7334 0.2069 0.0176
0.6841 0.2069 0.0199
0.6327 0.2069 0.022
0.5797 0.2069 0.0238
0.5258 0.2069 0.0252
0.4716 0.2069 0.0261
0.4178 0.2069 0.0264
0.3649 0.2069 0.026
0.3136 0.2069 0.0248
0.2645 0.2069 0.0228
0.2181 0.2069 0.02
0.1752 0.2069 0.0163
0.136 0.2069 0.0117
0.1011 0.2069 0.0064
0.0709 0.2069 0.0003
0.0458 0.2069 -0.0063
0.026 0.2069 -0.0134
0.0118 0.2069 -0.0209
0.0033 0.2069 -0.0287
0.0007 0.2069 -0.0366
0.0039 0.2069 -0.0444
0.0129 0.2069 -0.0515
0.0276 0.2069 -0.0579
0.0479 0.2069 -0.0636
0.0735 0.2069 -0.0683
0.104 0.2069 -0.0722
0.1392 0.2069 -0.075
0.1786 0.2069 -0.0766
0.2217 0.2069 -0.0772
0.2681 0.2069 -0.0766
0.3172 0.2069 -0.075
0.3685 0.2069 -0.0724
0.4212 0.2069 -0.0689
0.4749 0.2069 -0.0647
0.5289 0.2069 -0.0598
0.5826 0.2069 -0.0545
0.6353 0.2069 -0.0489
0.6864 0.2069 -0.043
0.7354 0.2069 -0.0371
0.7816 0.2069 -0.0313
0.8245 0.2069 -0.0256
0.8636 0.2069 -0.0202
0.8985 0.2069 -0.0153
0.9288 0.2069 -0.0109
0.954 0.2069 -0.0071
0.974 0.2069 -0.0041
0.9884 0.2069 -0.0018
0.9971 0.2069 -0.0005
1.0 0.2069 0.0
1.0 0.3103 0.0
0.9971 0.3103 0.0002
0.9883 0.3103 0.0009
0.9737 0.3103 0.002
0.9536 0.3103 0.0035
0.9281 0.3103 0.0053
0.8977 0.3103 0.0073
0.8625 0.3103 0.0095
0.823 0.3103 0.0118
0.7798 0.3103 0.0141
0.7333 0.3103 0.0163
0.684 0.3103 0.0184
0.6326 0.3103 0.0202
0.5796 0.3103 0.0217
0.5257 0.3103 0.0229
0.4715 0.3103 0.0235
0.4176 0.3103 0.0235
0.3647 0.3103 0.0229
0.3134 0.3103 0.0215
0.2644 0.3103 0.0192
0.2181 0.3103 0.0162
0.1751 0.3103 0.0122
0.1359 0.3103 0.0075
0.1011 0.3103 0.002
0.0709 0.3103 -0.0042
0.0458 0.3103 -0.011
0.0261 0.3103 -0.0182
0.0119 0.3103 -0.0258
0.0035 0.3103 -0.0336
0.0009 0.3103 -0.0415
0.0041 0.3103 -0.0493
0.0132 0.3103 -0.0563
0.0279 0.3103 -0.0627
0.0482 0.3103 -0.0682
0.0738 0.3103 -0.0729
0.1044 0.3103 -0.0766
0.1395 0.3103 -0.0792
0.1789 0.3103 -0.0807
0.2221 0.3103 -0.081
0.2685 0.3103 -0.0802
0.3176 0.3103 -0.0784
0.3688 0.3103 -0.0755
0.4216 0.3103 -0.0718
0.4753 0.3103 -0.0673
0.5292 0.3103 -0.0622
0.5829 0.3103 -0.0566
0.6356 0.3103 -0.0507
0.6866 0.3103 -0.0446
0.7356 0.3103 -0.0384
0.7817 0.3103 -0.0323
0.8246 0.3103 -0.0265
0.8637 0.3103 -0.0209
0.8986 0.3103 -0.0158
0.9288 0.3103 -0.0113
0.9541 0.3103 -0.0073
0.974 0.3103 -0.0042
0.9884 0.3103 -0.0019
0.9971 0.3103 -0.0005
1.0 0.3103 0.0
1.0 0.4138 0.0
0.9971 0.4138 0.0002
0.9883 0.4138 0.0009
0.9737 0.4138 0.0019
0.9536 0.4138 0.0034
0.9281 0.4138 0.0051
0.8976 0.4138 0.007
0.8625 0.4138 0.0091
0.823 0.4138 0.0112
0.7798 0.4138 0.0134
0.7332 0.4138 0.0154
0.684 0.4138 0.0173
0.6325 0.4138 0.019
0.5796 0.4138 0.0203
0.5256 0.4138 0.0213
0.4714 0.4138 0.0217
0.4176 0.4138 0.0216
0.3647 0.4138 0.0207
0.3134 0.4138 0.0192
0.2643 0.4138 0.0168
0.218 0.4138 0.0135
0.1751 0.4138 0.0095
0.1359 0.4138 0.0046
0.1011 0.4138 -0.001
0.071 0.4138 -0.0073
0.0459 0.4138 -0.0142
0.0262 0.4138 -0.0215
0.012 0.4138 -0.0291
0.0036 0.4138 -0.0369
0.001 0.4138 -0.0449
0.0043 0.4138 -0.0526
0.0134 0.4138 -0.0596
0.0282 0.4138 -0.0659
0.0485 0.4138 -0.0714
0.074 0.4138 -0.076
0.1046 0.4138 -0.0796
0.1398 0.4138 -0.0821
0.1792 0.4138 -0.0834
0.2224 0.4138 -0.0836
0.2688 0.4138 -0.0827
0.3179 0.4138 -0.0807
0.3691 0.4138 -0.0776
0.4218 0.4138 -0.0737
0.4755 0.4138 -0.069
0.5295 0.4138 -0.0637
0.5831 0.4138 -0.058
0.6357 0.4138 -0.0519
0.6868 0.4138 -0.0456
0.7357 0.4138 -0.0393
0.7819 0.4138 -0.0331
0.8247 0.4138 -0.0271
0.8638 0.4138 -0.0214
0.8987 0.4138 -0.0161
0.9289 0.4138 -0.0115
0.9541 0.4138 -0.0075
0.974 0.4138 -0.0043
0.9884 0.4138 -0.0019
0.9971 0.4138 -0.0005
1.0 0.4138 0.0
1.0 0.5172 0.0
0.9971 0.5172 0.0002
0.9883 0.5172 0.0009
0.9737 0.5172 0.0019
0.9536 0.5172 0.0032
0.9281 0.5172 0.0049
0.8976 0.5172 0.0067
0.8624 0.5172 0.0087
0.823 0.5172 0.0108
0.7797 0.5172 0.0128
0.7332 0.5172 0.0148
0.6839 0.5172 0.0166
0.6325 0.5172 0.0181
0.5795 0.5172 0.0193
0.5256 0.5172 0.0201
0.4714 0.5172 0.0204
0.4175 0.5172 0.0202
0.3646 0.5172 0.0192
0.3133 0.5172 0.0175
0.2643 0.5172 0.015
0.218 0.5172 0.0117
0.175 0.5172 0.0075
0.1359 0.5172 0.0025
0.1011 0.5172 -0.0032
0.071 0.5172 -0.0096
0.0459 0.5172 -0.0165
0.0262 0.5172 -0.0238
0.0121 0.5172 -0.0315
0.0037 0.5172 -0.0393
0.0011 0.5172 -0.0473
0.0044 0.5172 -0.055
0.0135 0.5172 -0.062
0.0283 0.5172 -0.0683
0.0486 0.5172 -0.0737
0.0742 0.5172 -0.0782
0.1048 0.5172 -0.0817
0.14 0.5172 -0.0841
0.1794 0.5172 -0.0854
0.2226 0.5172 -0.0855
0.269 0.5172 -0.0844
0.3181 0.5172 -0.0823
0.3693 0.5172 -0.0792
0.422 0.5172 -0.0751
0.4757 0.5172 -0.0703
0.5296 0.5172 -0.0649
0.5832 0.5172 -0.059
0.6359 0.5172 -0.0527
0.6869 0.5172 -0.0464
0.7358 0.5172 -0.0399
0.7819 0.5172 -0.0336
0.8248 0.5172 -0.0275
0.8639 0.5172 -0.0217
0.8987 0.5172 -0.0164
0.9289 0.5172 -0.0117
0.9541 0.5172 -0.0076
0.974 0.5172 -0.0044
0.9884 0.5172 -0.002
0.9971 0.5172 -0.0005
1.0 0.5172 0.0
1.0 0.6207 0.0
0.9971 0.6207 0.0002
0.9883 0.6207 0.0008
0.9737 0.6207 0.0018
0.9536 0.6207 0.0032
0.9281 0.6207 0.0048
0.8976 0.6207 0.0066
0.8624 0.6207 0.0085
0.823 0.6207 0.0105
0.7797 0.6207 0.0124
0.7332 0.6207 0.0143
0.6839 0.6207 0.016
0.6325 0.6207 0.0175
0.5795 0.6207 0.0186
0.5256 0.6207 0.0193
0.4713 0.6207 0.0195
0.4175 0.6207 0.0191
0.3646 0.6207 0.0181
0.3133 0.6207 0.0163
0.2642 0.6207 0.0137
0.218 0.6207 0.0103
0.175 0.6207 0.006
0.1359 0.6207 0.001
0.1011 0.6207 -0.0048
0.071 0.6207 -0.0113
0.046 0.6207 -0.0182
0.0263 0.6207 -0.0256
0.0121 0.6207 -0.0332
0.0037 0.6207 -0.0411
0.0012 0.6207 -0.0491
0.0045 0.6207 -0.0568
0.0136 0.6207 -0.0638
0.0284 0.6207 -0.07
0.0488 0.6207 -0.0754
0.0744 0.6207 -0.0799
0.105 0.6207 -0.0833
0.1402 0.6207 -0.0857
0.1796 0.6207 -0.0869
0.2227 0.6207 -0.0869
0.2691 0.6207 -0.0858
0.3182 0.6207 -0.0835
0.3694 0.6207 -0.0803
0.4221 0.6207 -0.0761
0.4758 0.6207 -0.0712
0.5297 0.6207 -0.0657
0.5833 0.6207 -0.0597
0.6359 0.6207 -0.0534
0.687 0.6207 -0.0469
0.7359 0.6207 -0.0404
0.782 0.6207 -0.034
0.8248 0.6207 -0.0278
0.8639 0.6207 -0.0219
0.8987 0.6207 -0.0166
0.9289 0.6207 -0.0118
0.9541 0.6207 -0.0077
0.974 0.6207 -0.0044
0.9884 0.6207 -0.002
0.9971 0.6207 -0.0005
1.0 0.6207 0.0
1.0 0.7241 0.0
0.9971 0.7241 0.0002
0.9883 0.7241 0.0008
0.9737 0.7241 0.0018
0.9536 0.7241 0.0031
0.9281 0.7241 0.0047
0.8976 0.7241 0.0064
0.8624 0.7241 0.0083
0.823 0.7241 0.0102
0.7797 0.7241 0.0121
0.7332 0.7241 0.0139
0.6839 0.7241 0.0156
0.6324 0.7241 0.0169
0.5794 0.7241 0.018
0.5255 0.7241 0.0186
0.4713 0.7241 0.0188
0.4174 0.7241 0.0183
0.3646 0.7241 0.0172
0.3133 0.7241 0.0153
0.2642 0.7241 0.0127
0.2179 0.7241 0.0092
0.175 0.7241 0.0049
0.1359 0.7241 -0.0002
0.1011 0.7241 -0.0061
0.071 0.7241 -0.0125
0.046 0.7241 -0.0195
0.0263 0.7241 -0.0269
0.0122 0.7241 -0.0346
0.0038 0.7241 -0.0425
0.0013 0.7241 -0.0504
0.0046 0.7241 -0.0581
0.0137 0.7241 -0.0651
0.0285 0.7241 -0.0713
0.0489 0.7241 -0.0767
0.0745 0.7241 -0.0811
0.1051 0.7241 -0.0845
0.1403 0.7241 -0.0868
0.1797 0.7241 -0.088
0.2229 0.7241 -0.0879
0.2692 0.7241 -0.0868
0.3183 0.7241 -0.0845
0.3695 0.7241 -0.0811
[...]
POINT_DATA 2010
SCALARS cp1 float
LOOKUP_TABLE default
0.412816
0.325443
0.214711
0.155807
0.104607
0.0544936
0.00773222
-0.0328217
-0.0739566
-0.113315
-0.151755
-0.192234
-0.233982
-0.275419
-0.318822
-0.36961
-0.420622
-0.472473
-0.53287
-0.593592
-0.658154
-0.736307
-0.820875
-0.921272
-1.06049
-1.25572
-1.57571
-2.35609
-3.34132
-1.36786
1.27522
1.24098
0.766057
0.494864
0.30806
0.180441
0.0875567
0.0237739
-0.0162809
-0.0427391
-0.0570457
-0.0622022
-0.0626362
-0.05613
-0.0467082
-0.0383403
-0.0278211
-0.0151724
7.27695e-05
0.0164549
0.0339092
0.0568557
0.0814151
0.110488
0.144531
0.18684
0.248301
0.350311
0.423207
0.426659
0.348736
0.236469
0.162272
0.106393
0.054094
0.00736262
-0.0341703
-0.0760077
-0.116683
-0.155534
-0.195663
-0.23776
-0.281071
-0.327513
-0.379007
-0.432207
-0.488344
-0.550799
-0.617235
-0.691737
-0.777698
-0.873708
-0.988937
-1.13927
-1.34738
-1.66149
-2.08227
-1.76304
0.16953
1.5556
1.05546
0.656258
0.42187
0.263495
0.154132
0.0752996
0.0213081
-0.0147485
-0.0386579
-0.052358
-0.0581832
-0.0584978
-0.0532083
-0.0447094
-0.0359813
-0.02567
-0.0128766
0.00174637
0.0176575
0.0366147
0.0596406
0.083724
0.112369
0.147929
0.193534
0.260352
0.355724
0.42033
0.441145
0.357033
0.237036
0.160275
0.103311
0.0506773
0.00507506
-0.0364302
-0.0789357
-0.119693
-0.15813
-0.198212
-0.240156
-0.284058
-0.332244
-0.383778
-0.437444
-0.495666
-0.55854
-0.625917
-0.70288
-0.788203
-0.883351
-0.996182
-1.13364
-1.31359
-1.57269
-1.96848
-1.95145
-0.28855
1.39977
1.05442
0.612525
0.373541
0.22602
0.126416
0.0567492
0.0105008
-0.0207916
-0.0416089
-0.0537502
-0.0583748
-0.0579888
-0.0530725
-0.0445138
-0.0356656
-0.0255038
-0.0121946
0.00258707
0.0178191
0.0365131
0.0596743
0.0827712
0.109993
0.145533
0.188713
0.247804
0.340671
0.407537
0.44279
0.359878
0.240653
0.163096
0.102783
0.0494894
0.00522283
-0.0373047
-0.0798407
-0.120136
-0.158872
-0.199439
-0.241064
-0.28484
-0.333661
-0.38419
-0.437361
-0.496075
-0.558602
-0.624412
-0.697806
-0.778601
-0.870214
-0.979269
-1.10972
-1.2813
-1.53544
-1.93442
-1.92403
-0.0652338
1.46085
1.0214
0.595518
0.360946
0.213553
0.112815
0.0452167
0.00100303
-0.0282672
-0.0475863
-0.0585604
-0.0612437
-0.0595949
-0.0545637
-0.0461578
-0.0370806
-0.0262475
-0.0123974
0.00295579
0.0180719
0.0355013
0.058572
0.0825979
0.109111
0.145523
0.188518
0.243643
0.334447
0.400997
0.437532
0.354219
0.236741
0.161936
0.101706
0.0487155
0.00472832
-0.0379623
-0.0799652
-0.119864
-0.159266
-0.200138
-0.241743
-0.285002
-0.332947
-0.38327
-0.436661
-0.494163
-0.556299
-0.62197
-0.692706
-0.771348
-0.861118
-0.966941
-1.09336
-1.25985
-1.50539
-1.89126
-1.86907
0.0166128
1.46045
1.00275
0.579875
0.347964
0.20233
0.103495
0.0374681
-0.00619919
-0.034506
-0.0528031
-0.0630022
-0.064867
-0.0618369
-0.0560229
-0.0481511
-0.0385958
-0.0265696
-0.0128751
0.00228828
0.0175781
0.0345429
0.0576523
0.0826957
0.109357
0.145146
0.188643
0.245623
0.340234
0.410471
0.43613
0.351757
0.234447
0.160402
0.101221
0.0484773
0.00438153
-0.0383205
-0.0800191
-0.119122
-0.158985
-0.200467
-0.241925
-0.285016
-0.331374
-0.381362
-0.435324
-0.491885
-0.552532
-0.618056
-0.688355
-0.765254
-0.852837
-0.954461
-1.07673
-1.24182
-1.48269
-1.85869
-1.81827
0.0708085
1.45824
0.986863
0.566487
0.337246
0.192958
0.0967782
0.0312136
-0.0129769
-0.0406134
-0.0573191
-0.0665572
-0.0684854
-0.0643784
-0.0580268
-0.0504955
-0.0398633
-0.0269673
-0.0137106
0.00105336
0.0165692
0.0345175
0.0575068
0.0817088
0.109185
0.145288
0.187769
0.244877
0.342672
0.416111
0.431836
0.350184
0.23621
0.161122
0.100271
0.0476719
0.00376843
-0.0386532
-0.0797529
-0.117975
-0.158189
-0.199896
-0.241253
-0.284401
-0.330123
-0.379628
-0.432677
-0.488876
-0.548602
-0.613789
-0.683494
-0.758852
-0.845189
-0.943265
-1.0631
-1.22494
-1.46153
-1.83183
-1.76768
0.11734
1.45564
0.972404
0.555082
0.327201
0.184659
0.0905424
0.0251529
-0.0189909
-0.0457432
-0.0621596
-0.07034
-0.0709355
-0.0666094
-0.0608085
-0.0528868
-0.0411943
-0.0279906
-0.0146338
-0.000494433
0.0153443
0.0348531
0.0576445
0.0807535
0.108238
0.144851
0.188712
0.246055
0.343075
0.416823
0.429153
0.34863
0.235685
0.160333
0.10014
0.0482184
0.00393965
-0.0388106
-0.0795928
-0.11746
-0.157508
-0.19853
-0.239981
-0.28333
-0.32848
-0.377783
-0.43019
-0.485137
-0.544354
-0.609362
-0.678455
-0.7526
-0.837215
-0.932984
-1.05292
-1.21293
-1.44499
-1.80304
-1.71994
0.145212
1.45066
0.960719
0.544401
0.318795
0.177773
0.0840505
0.0189664
-0.0242045
-0.0499265
-0.0664941
-0.0743779
-0.073157
-0.068596
-0.0638157
-0.0553545
-0.0427339
-0.0294782
-0.0157941
-0.00171467
0.01454
0.0346415
0.0568937
0.0803969
0.107744
0.144025
0.189542
0.248519
0.344502
0.416376
0.428578
0.346717
0.232935
0.159154
0.10127
0.0497884
0.00478134
-0.0383557
-0.0796628
-0.117484
-0.156757
-0.196899
-0.238422
-0.281747
-0.3262
-0.37546
-0.427703
-0.48156
-0.540068
-0.605047
-0.673282
-0.745962
-0.828755
-0.923613
-1.04339
-1.20193
-1.43036
-1.77556
-1.68395
0.181372
1.45209
0.948536
0.533302
0.311023
0.171214
0.07686
0.0127047
-0.0290661
-0.0538015
-0.0697197
-0.0778809
-0.0764769
-0.0710054
-0.0661619
-0.057597
-0.0444404
-0.0311892
-0.017329
-0.00243764
0.0143336
0.0334318
0.055098
0.0798424
0.108559
0.144624
0.188793
0.248997
0.346436
0.416895
0.42782
0.344829
0.232087
0.160123
0.10152
0.049514
0.00500538
-0.0370165
-0.0789041
-0.117383
-0.155302
-0.195189
-0.236663
-0.279554
-0.324133
-0.3732
-0.424892
-0.477884
-0.536103
-0.600929
-0.66762
-0.738665
-0.820576
-0.915846
-1.03474
-1.19053
-1.41326
-1.74767
-1.63909
0.218657
1.44872
0.939763
0.523678
0.303764
0.163936
0.0698897
0.0075653
-0.0327603
-0.0580301
-0.0735964
-0.0808431
-0.0800091
-0.0739828
-0.067903
-0.0593326
-0.0464933
-0.0330634
-0.0189563
-0.0035982
0.0138587
0.0321753
0.0535692
0.0793159
0.108895
0.14513
0.188796
0.249731
0.347321
0.416571
0.427744
0.343869
0.231429
0.160585
0.101943
0.0495394
0.0049207
-0.0363212
-0.0778747
-0.116327
-0.153463
-0.193583
-0.23507
-0.277332
-0.321747
-0.370499
-0.421931
-0.474446
-0.531978
-0.596008
-0.66175
-0.731496
-0.81325
-0.909659
-1.02477
-1.17721
-1.39195
-1.71914
-1.60513
0.245371
1.44833
0.928597
0.514698
0.293927
0.156117
0.0640739
0.00306937
-0.0363652
-0.0625095
-0.0777984
-0.0833018
-0.0832962
-0.0775338
-0.0697597
-0.060834
-0.0486373
-0.0352454
-0.0205628
-0.00474172
0.0128783
0.0312412
0.0527546
0.0789144
0.108206
0.144186
0.189737
0.251756
0.347845
0.416453
0.42764
0.343167
0.229499
0.159582
0.103215
0.0512864
0.0057251
-0.0366215
-0.0771999
-0.114116
-0.151584
-0.192288
-0.233449
-0.274962
-0.319104
-0.367188
-0.418223
-0.471207
-0.527755
-0.590151
-0.656556
-0.725601
-0.80612
-0.902685
-1.01275
-1.16145
-1.37558
-1.69676
-1.57883
0.259071
1.44252
0.917951
0.503961
0.284929
0.1494
0.0586519
-0.00270159
-0.0408452
-0.0661326
-0.0814158
-0.0862829
-0.086613
-0.0812727
-0.0723849
-0.062463
-0.0503692
-0.0373823
-0.0218266
-0.00550912
0.0109235
0.0296887
0.0522727
0.0787306
0.108239
0.143964
0.190359
0.252643
0.347602
0.416164
0.42761
0.342968
0.228516
0.158746
0.103068
0.0516934
0.00702196
-0.0355441
-0.0760924
-0.112476
-0.149973
-0.190527
-0.23112
-0.272133
-0.316392
-0.363922
-0.41405
-0.467192
-0.523557
-0.584935
-0.651646
-0.720488
-0.798435
-0.892182
-1.00029
-1.14831
-1.36392
-1.67515
-1.53192
0.296726
1.43943
0.905548
0.495534
0.276694
0.14273
0.0523328
-0.00854279
-0.0455283
-0.069672
-0.0850405
-0.0898782
-0.0896315
-0.0848763
-0.0757972
-0.0642435
-0.051521
-0.0390788
-0.0237869
-0.00689612
0.00917439
0.0281583
0.0520272
0.0786896
0.107832
0.143214
0.190701
0.25368
0.347526
0.415723
0.428047
0.343495
0.228811
0.158108
0.10204
0.0518995
0.00825738
-0.0339545
-0.0741768
-0.111256
-0.148891
-0.188157
-0.228059
-0.269095
-0.313088
-0.360483
-0.410611
-0.4628
-0.518754
-0.579797
-0.645418
-0.714746
-0.791211
-0.880478
-0.989099
-1.13728
-1.34809
-1.64933
-1.48782
0.327947
1.4359
0.895121
0.486021
0.269766
0.135272
0.0459029
-0.0138153
-0.0511705
-0.0743644
-0.0887121
-0.0934957
-0.0926097
-0.0881439
-0.0790705
-0.0665907
-0.0530835
-0.0404006
-0.0260938
-0.0088819
0.0082709
0.0269958
0.0511479
0.0785155
0.106773
0.141056
0.189837
0.255481
0.349657
0.416932
0.429179
0.344197
0.229118
0.157138
0.101521
0.0536711
0.00968533
-0.0330124
-0.0718504
-0.109614
-0.148067
-0.185661
-0.224313
-0.266011
-0.310095
-0.356733
-0.406603
-0.458627
-0.514108
-0.57331
-0.637614
-0.70838
-0.784534
-0.869788
-0.977667
-1.12256
-1.32686
-1.62524
-1.44561
0.362262
1.4331
0.882982
0.475405
0.261605
0.126779
0.0397978
-0.018757
-0.0572567
-0.0799446
-0.0931311
-0.0976107
-0.0956564
-0.0906432
-0.0816803
-0.0696707
-0.0560458
-0.0423165
-0.0277616
-0.0105922
0.00730366
0.0262423
0.0499508
0.0774832
0.106138
0.140189
0.187244
0.253444
0.351806
0.421273
0.427713
0.344036
0.231379
0.158732
0.102244
0.0550939
0.010767
-0.0314332
-0.0696672
-0.10819
-0.146415
-0.182458
-0.220677
-0.263268
-0.307044
-0.35236
-0.401595
-0.454045
-0.509339
-0.566524
-0.62981
-0.700867
-0.776841
-0.860429
-0.965653
-1.10677
-1.30628
-1.59899
-1.39993
0.394428
1.42457
0.867832
0.466512
0.251238
0.117932
0.0334609
-0.0243361
-0.0627945
-0.0853357
-0.0981876
-0.101996
-0.0990352
-0.0933102
-0.0843985
-0.0728696
-0.059503
-0.0447884
-0.0291811
-0.0124282
0.00595325
0.0262101
0.0492432
0.0753572
0.104956
0.141028
0.185486
0.2483
0.351044
0.425456
0.422233
0.342445
0.234672
0.162908
0.104018
0.0556604
0.0113358
-0.0295079
-0.067847
-0.106179
-0.143253
-0.17952
-0.218126
-0.259913
-0.302811
-0.347699
-0.396577
-0.448661
-0.503671
-0.560319
-0.622285
-0.691296
-0.767145
-0.851057
-0.954512
-1.09135
-1.28212
-1.56453
-1.36183
0.417007
1.4177
0.854593
0.454711
0.240728
0.108886
0.02606
-0.0310224
-0.06829
-0.0905373
-0.102913
-0.106318
-0.10365
-0.097221
-0.0875812
-0.0756073
-0.0621556
-0.0471242
-0.0307292
-0.0145224
0.00392307
0.0255404
0.0477646
0.0730861
0.104213
0.141478
0.185268
0.24625
0.349514
0.426003
0.419444
0.341684
0.236913
0.16502
0.104388
0.0552032
0.0122237
-0.0271616
-0.0658641
-0.103379
-0.139798
-0.177115
-0.21556
-0.255299
-0.297852
-0.343436
-0.390979
-0.44234
-0.497205
-0.553561
-0.614519
-0.681947
-0.756398
-0.839025
-0.941697
-1.07408
-1.25709
-1.53055
-1.31497
0.449563
1.41366
0.837705
0.441174
0.228652
0.100058
0.0182758
-0.0383735
-0.0746832
-0.0963703
-0.107622
-0.110671
-0.108788
-0.101355
-0.0906567
-0.0783251
-0.0646695
-0.0498819
-0.0327418
-0.0160492
0.00163442
0.0232184
0.0458534
0.0720727
0.103895
0.140479
0.185629
0.247726
0.349682
0.425863
0.419454
0.341544
0.236248
0.164405
0.104404
0.055589
0.0142426
-0.0245679
-0.0640006
-0.101028
-0.136923
-0.173788
-0.211928
-0.25029
-0.292438
-0.338882
-0.385223
-0.435468
-0.489499
-0.545188
-0.606491
-0.673611
-0.744759
-0.823942
-0.925655
-1.056
-1.23407
-1.49661
-1.25723
0.492181
1.40689
0.821182
0.424782
0.217362
0.0891164
0.00885197
-0.0456267
-0.0817576
-0.102856
-0.112694
-0.115567
-0.113838
-0.105124
-0.0937936
-0.0817824
-0.0676935
-0.0528154
-0.0355295
-0.0177085
-0.000406668
0.0203394
0.0442414
0.071843
0.103393
0.139874
0.186185
0.248871
0.350101
0.425705
0.4195
0.341112
0.2342
0.162861
0.105384
0.0582661
0.0168085
-0.0230055
-0.0622277
-0.0980736
-0.133431
-0.169521
-0.207766
-0.245941
-0.286471
-0.332529
-0.379197
-0.428696
-0.481073
-0.53581
-0.596873
-0.662639
-0.732409
-0.810383
-0.907615
-1.03441
-1.20924
-1.45516
-1.20614
0.520873
1.40099
0.801049
0.409965
0.205516
0.0782833
-0.00174812
-0.0542717
-0.089839
-0.109908
-0.118389
-0.121016
-0.118563
-0.109104
-0.0976461
-0.0856368
-0.0706709
-0.0553662
-0.0389558
-0.0205422
-0.0023796
0.0186794
0.0430164
0.070609
0.102832
0.139453
0.185239
0.249067
0.351564
0.425855
0.419475
0.340103
0.23265
0.163086
0.107066
0.0603036
0.0184007
-0.0217634
-0.0593915
-0.0942657
-0.129454
-0.16466
-0.202787
-0.241649
-0.280716
-0.324793
-0.371593
-0.42047
-0.471769
-0.526615
-0.585679
-0.64841
-0.719761
-0.797968
-0.887433
-1.00918
-1.1788
-1.41027
-1.13992
0.562573
1.39119
0.780586
0.392083
0.191645
0.0664634
-0.0129316
-0.0643184
-0.0981801
-0.117342
-0.12526
-0.126536
-0.122734
-0.113714
-0.102456
-0.0896847
-0.0738977
-0.0582772
-0.0423972
-0.0237265
-0.00462061
0.0176114
0.0422366
0.0687244
0.100956
0.137648
0.183116
0.249855
0.35419
0.426815
0.418516
0.337948
0.231502
0.165205
0.108759
0.0606039
0.0194612
-0.019215
-0.0554899
-0.0907188
-0.126024
-0.159823
-0.196535
-0.235628
-0.274315
-0.316461
-0.362544
-0.4107
-0.46131
-0.516408
-0.573621
-0.633541
-0.704194
-0.781134
-0.867329
-0.985633
-1.146
-1.36245
-1.07706
0.612059
1.38162
0.758046
0.371731
0.173834
0.0523456
-0.0246547
-0.0746085
-0.106818
-0.124692
-0.13263
-0.132968
-0.127525
-0.118507
-0.107554
-0.0939484
-0.0774795
-0.0617192
-0.0456337
-0.0267573
-0.00700567
0.0155928
0.0403912
0.0671071
0.0992177
0.136027
0.182912
0.25121
0.35517
0.426525
0.418029
0.33614
0.229557
0.165121
0.109748
0.0618066
0.0209142
-0.0165613
-0.0518046
-0.0868166
-0.121524
-0.154552
-0.189551
-0.227941
-0.2665
-0.30704
-0.352022
-0.399868
-0.450068
-0.503914
-0.559389
-0.61789
-0.685198
-0.760203
-0.847493
-0.961301
-1.10893
-1.30703
-0.99722
0.660158
1.36718
0.731079
0.348857
0.155192
0.0375216
-0.0372137
-0.0857954
-0.116413
-0.132597
-0.140104
-0.140307
-0.13349
-0.123327
-0.112211
-0.0981474
-0.0817414
-0.0659111
-0.04877
-0.0297202
-0.00963605
0.0125638
0.0366525
0.065348
0.0987358
0.135104
0.183452
0.252614
0.355015
0.42557
0.416957
0.333971
0.227435
0.164262
0.110798
0.0640982
0.0224525
-0.0148737
-0.0486334
-0.0819857
-0.115471
-0.147627
-0.181555
-0.219519
-0.257696
-0.296237
-0.339364
-0.387067
-0.437314
-0.488822
-0.542369
-0.600393
-0.665062
-0.737601
-0.823032
-0.928764
-1.06884
-1.24802
-0.911695
0.701145
1.34977
0.700038
0.324401
0.134851
0.0212248
-0.0523748
-0.0981868
-0.126198
-0.141369
-0.147872
-0.147379
-0.140135
-0.129087
-0.116618
-0.102092
-0.0867952
-0.0706
-0.0518832
-0.0329601
-0.0129452
0.0090007
0.0324229
0.0626049
0.0976888
0.134129
0.1829
0.253383
0.355885
0.425688
0.412158
0.330813
0.22738
0.164997
0.111266
0.0654622
0.0244727
-0.0124477
-0.0446154
-0.0763325
-0.10884
-0.139525
-0.172734
-0.209305
-0.245876
-0.283938
-0.325285
-0.371584
-0.421307
-0.470812
-0.522448
-0.579901
-0.643468
-0.71255
-0.791846
-0.891146
-1.02588
-1.18308
-0.821526
0.749725
1.32939
0.664682
0.296813
0.1132
0.00203186
-0.0686274
-0.111257
-0.13685
-0.15137
-0.156262
-0.153658
-0.146611
-0.135668
-0.121569
-0.106205
-0.091337
-0.0746812
-0.0557631
-0.0373591
-0.0171092
0.0048418
0.027905
0.058553
0.0949606
0.132528
0.180409
0.251467
0.357282
0.429631
0.410708
0.331445
0.229706
0.16542
0.111072
0.0666763
0.0275357
-0.00805022
-0.0395329
-0.0700642
-0.10126
-0.130688
-0.162674
-0.196545
-0.230858
-0.268684
-0.308786
-0.352849
-0.400996
-0.449088
-0.499113
-0.555066
-0.616576
-0.683297
-0.758872
-0.849432
-0.972557
-1.11107
-0.717993
0.811569
1.30455
0.624183
0.263671
0.0875114
-0.0189103
-0.0857576
-0.126026
-0.149273
-0.162137
-0.164886
-0.159471
-0.152169
-0.141263
-0.126369
-0.110647
-0.0950174
-0.0785508
-0.0613164
-0.043065
-0.0220806
-0.00067511
0.0226804
0.0532436
0.0895125
0.128821
0.175644
0.242764
0.348552
0.423442
0.412967
0.332487
0.229024
0.164188
0.111473
0.0679408
0.0306686
-0.00241422
-0.0332073
-0.0626302
-0.0920799
-0.120245
-0.149694
-0.180809
-0.21361
-0.249469
-0.287616
-0.329512
-0.374877
-0.421097
-0.470654
-0.524529
-0.581863
-0.646752
-0.719851
-0.802091
-0.909927
-1.0314
-0.606991
0.874311
1.27226
0.577703
0.224221
0.0554901
-0.0433208
-0.104957
-0.142817
-0.162772
-0.171472
-0.172336
-0.165484
-0.156618
-0.1449
-0.129576
-0.114249
-0.0990094
-0.0835132
-0.0677231
-0.0495059
-0.0286742
-0.0085527
0.0150932
0.0454305
0.0803307
0.12131
0.169433
0.232143
0.331003
0.403474
0.419812
0.333325
0.22707
0.162673
0.112268
0.0688937
0.0336495
0.00381305
-0.0247287
-0.0525347
-0.0805244
-0.107217
-0.133336
-0.161031
-0.192211
-0.225905
-0.260952
-0.299687
-0.340837
-0.384079
-0.4329
-0.4844
-0.538398
-0.600067
-0.668969
-0.745277
-0.839698
-0.935277
-0.476157
0.950357
1.22783
0.517527
0.177901
0.0167224
-0.0729995
-0.12765
-0.160328
-0.175426
-0.179006
-0.177178
-0.169298
-0.158827
-0.146491
-0.131141
-0.116481
-0.103012
-0.0886846
-0.074128
-0.0573895
-0.0380924
-0.0201952
0.00229931
0.032197
0.0669947
0.109709
0.162828
0.227269
0.323841
0.397902
0.3502
0.285015
0.197273
0.141495
0.096918
0.0571912
0.0259905
7.36642e-05
-0.0244983
-0.0483631
-0.072377
-0.0953879
-0.117496
-0.14041
-0.167097
-0.196626
-0.226463
-0.258792
-0.293249
-0.330241
-0.372228
-0.416648
-0.464663
-0.518948
-0.57913
-0.648074
-0.723475
-0.750375
-0.25379
0.951794
1.10775
0.445368
0.118566
-0.0304422
-0.106263
-0.148588
-0.171106
-0.180142
-0.180309
-0.175867
-0.16747
-0.157345
-0.145794
-0.132244
-0.119536
-0.107979
-0.0959691
-0.0847343
-0.0724304
-0.0583361
-0.0463932
-0.0317709
-0.0113546
0.0133403
0.0466027
0.0947091
0.164748
0.2752
0.358371
0.217432
0.178399
0.122061
0.0932159
0.0621512
0.0296149
0.00584538
-0.0141429
-0.0335964
-0.0514933
-0.0692673
-0.0865007
-0.103417
-0.120066
-0.140329
-0.164248
-0.18691
-0.210781
-0.236857
-0.264616
-0.295481
-0.328036
-0.365104
-0.407881
-0.455515
-0.516795
-0.60664
-0.732893
-0.226989
1.19213
1.18526
0.229157
-0.0404579
-0.122555
-0.158064
-0.175919
-0.18225
-0.182704
-0.17906
-0.172245
-0.163561
-0.154841
-0.144505
-0.133318
-0.123622
-0.114159
-0.105184
-0.0993404
-0.0930549
-0.0856644
-0.0838591
-0.0828164
-0.0797423
-0.076398
-0.066989
-0.040798
0.0193578
0.162452
0.277383
-18.155
-11.5859
-3.15482
-1.71035
-0.950482
-0.566236
-0.376679
-0.277846
-0.21851
-0.184398
-0.166945
-0.158201
-0.156583
-0.160167
-0.169669
-0.18211
-0.197028
-0.214433
-0.233931
-0.256594
-0.279401
-0.302516
-0.3287
-0.356735
-0.382987
-0.41515
-0.464671
-0.567878
-0.112413
0.5797
-17.7044
-10.4975
-3.48844
-1.81523
-1.10369
-0.732396
-0.529104
-0.408387
-0.330697
-0.281655
-0.249872
-0.228492
-0.215416
-0.208624
-0.207984
-0.211596
-0.218512
-0.227734
-0.239292
-0.253503
-0.267983
-0.282809
-0.299845
-0.318578
-0.337515
-0.359773
-0.385892
-0.406349
-0.0457138
0.627061
-16.8469
-9.65277
-3.12119
-1.786
-1.18828
-0.847858
-0.637597
-0.500269
-0.409744
-0.348816
-0.30579
-0.275047
-0.254353
-0.240754
-0.233848
-0.231925
-0.233101
-0.236707
-0.242725
-0.2509
-0.259081