# vtk DataFile Version 2.0
scalar
ASCII
DATASET UNSTRUCTURED_GRID
POINTS 2010 float
1.0 0.0 0.0
0.9971 0.0 0.0004
0.9883 0.0 0.0014
0.9738 0.0 0.0031
0.9538 0.0 0.0054
0.9284 0.0 0.0083
0.898 0.0 0.0116
0.863 0.0 0.0152
0.8237 0.0 0.0192
0.7806 0.0 0.0232
0.7342 0.0 0.0274
0.6851 0.0 0.0315
0.6338 0.0 0.0355
0.5809 0.0 0.0392
0.5271 0.0 0.0425
0.4729 0.0 0.0454
0.4191 0.0 0.0477
0.3662 0.0 0.0492
0.3149 0.0 0.05
0.2658 0.0 0.0498
0.2194 0.0 0.0486
0.1763 0.0 0.0465
0.137 0.0 0.0434
0.102 0.0 0.0393
0.0716 0.0 0.0344
0.0462 0.0 0.0286
0.0262 0.0 0.0222
0.0117 0.0 0.0153
0.0029 0.0 0.0079
0.0 0.0 0.0
0.0029 0.0 -0.0079
0.0117 0.0 -0.0153
0.0262 0.0 -0.0222
0.0462 0.0 -0.0286
0.0716 0.0 -0.0344
0.102 0.0 -0.0393
0.137 0.0 -0.0434
0.1763 0.0 -0.0465
0.2194 0.0 -0.0486
0.2658 0.0 -0.0498
0.3149 0.0 -0.05
0.3662 0.0 -0.0492
0.4191 0.0 -0.0477
0.4729 0.0 -0.0454
0.5271 0.0 -0.0425
0.5809 0.0 -0.0392
0.6338 0.0 -0.0355
0.6851 0.0 -0.0315
0.7342 0.0 -0.0274
0.7806 0.0 -0.0232
0.8237 0.0 -0.0192
0.863 0.0 -0.0152
0.898 0.0 -0.0116
0.9284 0.0 -0.0083
0.9538 0.0 -0.0054
0.9738 0.0 -0.0031
0.9883 0.0 -0.0014
0.9971 0.0 -0.0004
1.0 0.0 0.0
1.0 0.1034 0.0
0.9971 0.1034 0.0003
0.9883 0.1034 0.0012
0.9738 0.1034 0.0026
0.9537 0.1034 0.0046
0.9283 0.1034 0.007
0.8978 0.1034 0.0097
0.8627 0.1034 0.0127
0.8234 0.1034 0.0159
0.7802 0.1034 0.0192
0.7337 0.1034 0.0225
0.6845 0.1034 0.0257
0.6332 0.1034 0.0287
0.5802 0.1034 0.0314
0.5264 0.1034 0.0338
0.4722 0.1034 0.0357
0.4183 0.1034 0.0369
0.3654 0.1034 0.0375
0.3141 0.1034 0.0373
0.265 0.1034 0.0362
0.2186 0.1034 0.0342
0.1756 0.1034 0.0313
0.1363 0.1034 0.0274
0.1014 0.1034 0.0227
0.0711 0.1034 0.0172
0.0458 0.1034 0.011
0.0259 0.1034 0.0043
0.0116 0.1034 -0.003
0.003 0.1034 -0.0106
0.0002 0.1034 -0.0185
0.0032 0.1034 -0.0263
0.0121 0.1034 -0.0335
0.0268 0.1034 -0.0402
0.0469 0.1034 -0.0463
0.0724 0.1034 -0.0515
0.1028 0.1034 -0.0559
0.138 0.1034 -0.0593
0.1773 0.1034 -0.0617
0.2204 0.1034 -0.063
0.2668 0.1034 -0.0633
0.316 0.1034 -0.0626
0.3673 0.1034 -0.0609
0.4201 0.1034 -0.0584
0.4739 0.1034 -0.0551
0.5279 0.1034 -0.0513
0.5817 0.1034 -0.0469
0.6345 0.1034 -0.0422
0.6857 0.1034 -0.0373
0.7348 0.1034 -0.0323
0.7811 0.1034 -0.0273
0.8241 0.1034 -0.0224
0.8633 0.1034 -0.0178
0.8983 0.1034 -0.0135
0.9286 0.1034 -0.0096
0.9539 0.1034 -0.0063
0.9739 0.1034 -0.0036
0.9883 0.1034 -0.0016
0.9971 0.1034 -0.0004
1.0 0.1034 0.0
1.0 0.2069 0.0
0.9971 0.2069 0.0003
0.9883 0.2069 0.0011
0.9738 0.2069 0.0025
0.9537 0.2069 0.0043
0.9283 0.2069 0.0066
0.8978 0.2069 0.0092
0.8627 0.2069 0.012
0.8233 0.2069 0.015
0.7801 0.2069 0.018
0.7336 0.2069 0.0211
0.6844 0.2069 0.024
0.633 0.2069 0.0268
0.5801 0.2069 0.0292
0.5262 0.2069 0.0313
0.472 0.2069 0.0329
0.4181 0.2069 0.0339
0.3652 0.2069 0.0342
0.3139 0.2069 0.0337
0.2648 0.2069 0.0324
0.2185 0.2069 0.0301
0.1754 0.2069 0.0269
0.1362 0.2069 0.0229
0.1013 0.2069 0.018
0.071 0.2069 0.0123
0.0458 0.2069 0.006
0.0259 0.2069 -0.0008
0.0116 0.2069 -0.0081
0.003 0.2069 -0.0158
0.0003 0.2069 -0.0237
0.0034 0.2069 -0.0315
0.0123 0.2069 -0.0387
0.027 0.2069 -0.0453
0.0472 0.2069 -0.0512
0.0726 0.2069 -0.0564
0.1031 0.2069 -0.0606
0.1383 0.2069 -0.0638
0.1776 0.2069 -0.066
0.2208 0.2069 -0.0671
0.2672 0.2069 -0.0672
0.3163 0.2069 -0.0662
0.3676 0.2069 -0.0642
0.4204 0.2069 -0.0614
0.4742 0.2069 -0.0579
0.5282 0.2069 -0.0537
0.5819 0.2069 -0.0491
0.6347 0.2069 -0.0441
0.6859 0.2069 -0.039
0.7349 0.2069 -0.0337
0.7812 0.2069 -0.0284
0.8242 0.2069 -0.0233
0.8634 0.2069 -0.0185
0.8983 0.2069 -0.014
0.9286 0.2069 -0.01
0.9539 0.2069 -0.0065
0.9739 0.2069 -0.0037
0.9883 0.2069 -0.0017
0.9971 0.2069 -0.0004
1.0 0.2069 0.0
1.0 0.3103 0.0
0.9971 0.3103 0.0003
0.9883 0.3103 0.0011
0.9738 0.3103 0.0024
0.9537 0.3103 0.0042
0.9282 0.3103 0.0064
0.8978 0.3103 0.0088
0.8626 0.3103 0.0116
0.8232 0.3103 0.0144
0.78 0.3103 0.0173
0.7336 0.3103 0.0202
0.6843 0.3103 0.023
0.6329 0.3103 0.0256
0.58 0.3103 0.0279
0.5261 0.3103 0.0298
0.4719 0.3103 0.0312
0.418 0.3103 0.0321
0.3651 0.3103 0.0322
0.3138 0.3103 0.0315
0.2647 0.3103 0.03
0.2184 0.3103 0.0276
0.1754 0.3103 0.0243
0.1361 0.3103 0.0201
0.1012 0.3103 0.0151
0.071 0.3103 0.0094
0.0458 0.3103 0.003
0.0259 0.3103 -0.0039
0.0116 0.3103 -0.0113
0.0031 0.3103 -0.019
0.0004 0.3103 -0.0269
0.0035 0.3103 -0.0347
0.0125 0.3103 -0.0419
0.0271 0.3103 -0.0484
0.0473 0.3103 -0.0543
0.0728 0.3103 -0.0593
0.1033 0.3103 -0.0634
0.1385 0.3103 -0.0665
0.1779 0.3103 -0.0686
0.221 0.3103 -0.0696
0.2674 0.3103 -0.0695
0.3165 0.3103 -0.0684
0.3678 0.3103 -0.0663
0.4206 0.3103 -0.0633
0.4743 0.3103 -0.0596
0.5284 0.3103 -0.0552
0.5821 0.3103 -0.0504
0.6349 0.3103 -0.0453
0.686 0.3103 -0.04
0.735 0.3103 -0.0345
0.7813 0.3103 -0.0291
0.8243 0.3103 -0.0239
0.8635 0.3103 -0.0189
0.8984 0.3103 -0.0143
0.9287 0.3103 -0.0102
0.954 0.3103 -0.0067
0.9739 0.3103 -0.0038
0.9884 0.3103 -0.0017
0.9971 0.3103 -0.0004
1.0 0.3103 0.0
1.0 0.4138 0.0
0.9971 0.4138 0.0003
0.9883 0.4138 0.0011
0.9737 0.4138 0.0024
0.9536 0.4138 0.0041
0.9282 0.4138 0.0062
0.8978 0.4138 0.0086
0.8626 0.4138 0.0113
0.8232 0.4138 0.014
0.78 0.4138 0.0169
0.7335 0.4138 0.0197
0.6843 0.4138 0.0223
0.6329 0.4138 0.0248
0.5799 0.4138 0.027
0.526 0.4138 0.0288
0.4718 0.4138 0.0301
0.418 0.4138 0.0308
0.3651 0.4138 0.0308
0.3138 0.4138 0.03
0.2647 0.4138 0.0284
0.2183 0.4138 0.0259
0.1753 0.4138 0.0225
0.1361 0.4138 0.0183
0.1012 0.4138 0.0132
0.071 0.4138 0.0074
0.0458 0.4138 0.0009
0.0259 0.4138 -0.006
0.0117 0.4138 -0.0134
0.0031 0.4138 -0.0211
0.0004 0.4138 -0.029
0.0036 0.4138 -0.0368
0.0126 0.4138 -0.044
0.0272 0.4138 -0.0505
0.0474 0.4138 -0.0563
0.073 0.4138 -0.0613
0.1035 0.4138 -0.0654
0.1386 0.4138 -0.0684
0.178 0.4138 -0.0704
0.2211 0.4138 -0.0713
0.2676 0.4138 -0.0711
0.3167 0.4138 -0.0698
0.3679 0.4138 -0.0676
0.4207 0.4138 -0.0645
0.4745 0.4138 -0.0607
0.5285 0.4138 -0.0563
0.5822 0.4138 -0.0513
0.6349 0.4138 -0.0461
0.6861 0.4138 -0.0406
0.7351 0.4138 -0.0351
0.7814 0.4138 -0.0296
0.8243 0.4138 -0.0243
0.8635 0.4138 -0.0192
0.8984 0.4138 -0.0145
0.9287 0.4138 -0.0104
0.954 0.4138 -0.0068
0.9739 0.4138 -0.0039
0.9884 0.4138 -0.0017
0.9971 0.4138 -0.0004
1.0 0.4138 0.0
1.0 0.5172 0.0
0.9971 0.5172 0.0003
0.9883 0.5172 0.001
0.9737 0.5172 0.0023
0.9536 0.5172 0.004
0.9282 0.5172 0.0061
0.8977 0.5172 0.0085
0.8626 0.5172 0.011
0.8232 0.5172 0.0138
0.78 0.5172 0.0165
0.7335 0.5172 0.0192
0.6843 0.5172 0.0218
0.6329 0.5172 0.0242
0.5799 0.5172 0.0263
0.526 0.5172 0.0281
0.4718 0.5172 0.0293
0.4179 0.5172 0.0299
0.365 0.5172 0.0298
0.3137 0.5172 0.029
0.2646 0.5172 0.0273
0.2183 0.5172 0.0247
0.1753 0.5172 0.0213
0.1361 0.5172 0.0169
0.1012 0.5172 0.0118
0.071 0.5172 0.0059
0.0458 0.5172 -0.0006
0.0259 0.5172 -0.0076
0.0117 0.5172 -0.015
0.0032 0.5172 -0.0227
0.0005 0.5172 -0.0306
0.0036 0.5172 -0.0384
0.0126 0.5172 -0.0455
0.0273 0.5172 -0.052
0.0475 0.5172 -0.0578
0.0731 0.5172 -0.0628
0.1036 0.5172 -0.0668
0.1387 0.5172 -0.0698
0.1781 0.5172 -0.0717
0.2213 0.5172 -0.0725
0.2677 0.5172 -0.0722
0.3168 0.5172 -0.0709
0.368 0.5172 -0.0686
0.4208 0.5172 -0.0654
0.4746 0.5172 -0.0615
0.5286 0.5172 -0.057
0.5823 0.5172 -0.052
0.635 0.5172 -0.0467
0.6862 0.5172 -0.0411
0.7352 0.5172 -0.0355
0.7814 0.5172 -0.0299
0.8244 0.5172 -0.0245
0.8635 0.5172 -0.0194
0.8984 0.5172 -0.0147
0.9287 0.5172 -0.0105
0.954 0.5172 -0.0068
0.9739 0.5172 -0.0039
0.9884 0.5172 -0.0018
0.9971 0.5172 -0.0004
1.0 0.5172 0.0
1.0 0.6207 0.0
0.9971 0.6207 0.0003
0.9883 0.6207 0.001
0.9737 0.6207 0.0023
0.9536 0.6207 0.004
0.9282 0.6207 0.006
0.8977 0.6207 0.0083
0.8626 0.6207 0.0109
0.8232 0.6207 0.0135
0.78 0.6207 0.0163
0.7335 0.6207 0.0189
0.6842 0.6207 0.0215
0.6328 0.6207 0.0238
0.5799 0.6207 0.0259
0.526 0.6207 0.0275
0.4718 0.6207 0.0287
0.4179 0.6207 0.0292
0.365 0.6207 0.0291
0.3137 0.6207 0.0282
0.2646 0.6207 0.0264
0.2183 0.6207 0.0238
0.1752 0.6207 0.0203
0.1361 0.6207 0.0159
0.1012 0.6207 0.0107
0.0709 0.6207 0.0048
0.0458 0.6207 -0.0017
0.026 0.6207 -0.0087
0.0117 0.6207 -0.0161
0.0032 0.6207 -0.0238
0.0005 0.6207 -0.0318
0.0037 0.6207 -0.0395
0.0127 0.6207 -0.0467
0.0274 0.6207 -0.0532
0.0476 0.6207 -0.0589
0.0731 0.6207 -0.0638
0.1037 0.6207 -0.0678
0.1388 0.6207 -0.0708
0.1782 0.6207 -0.0726
0.2213 0.6207 -0.0734
0.2677 0.6207 -0.0731
0.3169 0.6207 -0.0717
0.3681 0.6207 -0.0693
0.4209 0.6207 -0.0661
0.4746 0.6207 -0.0621
0.5287 0.6207 -0.0575
0.5823 0.6207 -0.0525
0.6351 0.6207 -0.0471
0.6862 0.6207 -0.0415
0.7352 0.6207 -0.0358
0.7814 0.6207 -0.0302
0.8244 0.6207 -0.0247
0.8636 0.6207 -0.0196
0.8985 0.6207 -0.0148
0.9287 0.6207 -0.0106
0.954 0.6207 -0.0069
0.9739 0.6207 -0.0039
0.9884 0.6207 -0.0018
0.9971 0.6207 -0.0004
1.0 0.6207 0.0
1.0 0.7241 0.0
0.9971 0.7241 0.0003
0.9883 0.7241 0.001
0.9737 0.7241 0.0023
0.9536 0.7241 0.0039
0.9282 0.7241 0.0059
0.8977 0.7241 0.0082
0.8626 0.7241 0.0108
0.8232 0.7241 0.0134
0.78 0.7241 0.0161
0.7335 0.7241 0.0187
0.6842 0.7241 0.0212
0.6328 0.7241 0.0235
0.5798 0.7241 0.0255
0.5259 0.7241 0.0271
0.4717 0.7241 0.0282
0.4179 0.7241 0.0287
0.365 0.7241 0.0285
0.3137 0.7241 0.0276
0.2646 0.7241 0.0258
0.2182 0.7241 0.0231
0.1752 0.7241 0.0196
0.136 0.7241 0.0152
0.1011 0.7241 0.01
0.0709 0.7241 0.004
0.0458 0.7241 -0.0025
0.026 0.7241 -0.0096
0.0117 0.7241 -0.017
0.0032 0.7241 -0.0247
0.0005 0.7241 -0.0327
0.0037 0.7241 -0.0404
0.0127 0.7241 -0.0476
0.0274 0.7241 -0.054
0.0477 0.7241 -0.0598
0.0732 0.7241 -0.0647
0.1037 0.7241 -0.0686
0.1389 0.7241 -0.0715
0.1783 0.7241 -0.0734
0.2214 0.7241 -0.0741
0.2678 0.7241 -0.0737
0.3169 0.7241 -0.0723
0.3682 0.7241 -0.0699
0.421 0.7241 -0.0666
[...]
POINT_DATA 2010
SCALARS cp1 float
LOOKUP_TABLE default
0.423561
0.33414
0.22089
0.158386
0.0987545
0.0447362
0.000129294
-0.04323
-0.08762
-0.127931
-0.169766
-0.213675
-0.257408
-0.301762
-0.350969
-0.405749
-0.460401
-0.520231
-0.588444
-0.65842
-0.733749
-0.822779
-0.923052
-1.04485
-1.20477
-1.4273
-1.79458
-2.61796
-3.63775
-1.56394
1.30776
1.33201
0.834907
0.558408
0.372096
0.242452
0.148428
0.0828849
0.0397171
0.00840849
-0.0109495
-0.0189105
-0.0225254
-0.0211568
-0.0166119
-0.0103227
-0.00119144
0.00874255
0.0206602
0.0353625
0.0509444
0.0693258
0.0916962
0.119408
0.152835
0.193405
0.245199
0.340669
0.41353
0.424881
0.346823
0.238097
0.164095
0.101093
0.0459247
-0.000955163
-0.0447948
-0.088234
-0.129917
-0.172454
-0.216025
-0.260215
-0.306146
-0.356728
-0.412027
-0.469342
-0.532043
-0.602015
-0.677246
-0.759247
-0.853952
-0.965549
-1.10022
-1.27363
-1.51951
-1.89925
-2.44618
-2.38734
-0.392181
1.45756
1.1776
0.774149
0.521948
0.348354
0.228741
0.143297
0.0827778
0.0409353
0.0111277
-0.00753211
-0.0160775
-0.0198533
-0.0194101
-0.0151675
-0.00832658
0.000340332
0.0097763
0.0217995
0.0370333
0.0533362
0.071435
0.0940576
0.122468
0.157825
0.202516
0.262825
0.356725
0.423114
0.422382
0.340105
0.230699
0.159007
0.0971483
0.0428923
-0.00393509
-0.0480333
-0.0904944
-0.131545
-0.174213
-0.217494
-0.26213
-0.308519
-0.359159
-0.414693
-0.473759
-0.537254
-0.606871
-0.683721
-0.766415
-0.860503
-0.971565
-1.10291
-1.26528
-1.48848
-1.8276
-2.36406
-2.5791
-0.760764
1.36868
1.18941
0.74471
0.487803
0.321071
0.209123
0.131134
0.0749456
0.0353508
0.00774686
-0.00938997
-0.0170225
-0.0202786
-0.0199101
-0.0149811
-0.00753692
0.000331494
0.00915451
0.0218267
0.0375289
0.053376
0.0713996
0.0941377
0.121501
0.15622
0.200741
0.25993
0.357755
0.430475
0.418385
0.335747
0.226643
0.155972
0.0954696
0.0427526
-0.00411153
-0.0495032
-0.0913237
-0.132275
-0.174804
-0.217339
-0.26237
-0.309764
-0.359958
-0.414884
-0.475003
-0.538095
-0.605665
-0.681436
-0.763094
-0.854416
-0.962052
-1.08962
-1.24715
-1.46534
-1.80201
-2.3418
-2.55801
-0.561071
1.42824
1.16801
0.733224
0.479123
0.313144
0.201479
0.12417
0.0683996
0.0292987
0.00354536
-0.0122737
-0.0197256
-0.0221607
-0.0214198
-0.0159462
-0.0079819
-0.000607469
0.00870986
0.0221042
0.0369833
0.0523473
0.0721224
0.0960034
0.121608
0.155173
0.200575
0.263083
0.362343
0.434562
0.416026
0.333197
0.225138
0.154215
0.0943695
0.0428538
-0.00432884
-0.0492932
-0.0914288
-0.133446
-0.175383
-0.216771
-0.261441
-0.309621
-0.360743
-0.415255
-0.473842
-0.536336
-0.603925
-0.678161
-0.759175
-0.85041
-0.955563
-1.08101
-1.23614
-1.44983
-1.77883
-2.30677
-2.52091
-0.516022
1.42851
1.15632
0.724072
0.471531
0.306261
0.19451
0.117563
0.0629173
0.0247228
0.000124339
-0.014757
-0.0220634
-0.0237807
-0.0228114
-0.0178085
-0.00978359
-0.00170132
0.00880188
0.0218544
0.0359535
0.0518336
0.0724338
0.096148
0.120961
0.154949
0.200251
0.263545
0.365384
0.438326
0.412213
0.331631
0.227174
0.155343
0.0938904
0.0427072
-0.00465654
-0.048755
-0.0914316
-0.133738
-0.174709
-0.216304
-0.260727
-0.308669
-0.360504
-0.414719
-0.471506
-0.533843
-0.602511
-0.675036
-0.755131
-0.846574
-0.949058
-1.07167
-1.22535
-1.43564
-1.75879
-2.28085
-2.48112
-0.466557
1.43215
1.14752
0.715746
0.464633
0.300296
0.188466
0.111372
0.0581531
0.0212073
-0.00321263
-0.0176865
-0.024451
-0.0256977
-0.0240024
-0.0192246
-0.0119817
-0.00324676
0.0080789
0.0209172
0.0355073
0.0522594
0.0717803
0.0943894
0.120208
0.156637
0.200984
0.260852
0.364648
0.441097
0.409401
0.329948
0.226956
0.154481
0.0928965
0.0438171
-0.00322629
-0.0485769
-0.0912522
-0.132927
-0.173731
-0.215885
-0.260422
-0.307846
-0.359003
-0.412649
-0.469007
-0.531378
-0.600127
-0.671347
-0.750549
-0.841906
-0.942891
-1.06314
-1.21658
-1.42306
-1.73598
-2.25623
-2.44962
-0.419845
1.43612
1.13799
0.705917
0.456957
0.294674
0.183803
0.106876
0.0538653
0.0177917
-0.00645872
-0.0207909
-0.0270075
-0.0279733
-0.0256538
-0.0207249
-0.0137557
-0.00448892
0.00673964
0.0194537
0.0346781
0.0519126
0.0707317
0.0931832
0.120428
0.157418
0.201004
0.260465
0.366042
0.445336
0.412415
0.331138
0.227122
0.155488
0.0942953
0.0454993
-0.00192909
-0.0486474
-0.09092
-0.131559
-0.172848
-0.215107
-0.259125
-0.306777
-0.357323
-0.409885
-0.466499
-0.528624
-0.596458
-0.66792
-0.746022
-0.835731
-0.937853
-1.05688
-1.20801
-1.41114
-1.71643
-2.23259
-2.41287
-0.380575
1.43914
1.12967
0.699323
0.449469
0.287699
0.179329
0.103262
0.0496356
0.0140367
-0.00933137
-0.0237373
-0.0294891
-0.0301128
-0.0282775
-0.0229324
-0.0149144
-0.00562158
0.00516928
0.0181244
0.033657
0.0508475
0.069489
0.0922316
0.120515
0.156033
0.198631
0.258484
0.361061
0.437915
0.42071
0.336064
0.231264
0.160785
0.0967397
0.0451031
-0.00155167
-0.047576
-0.0899574
-0.130126
-0.171825
-0.213951
-0.25705
-0.305195
-0.35542
-0.406904
-0.464179
-0.525581
-0.592038
-0.66505
-0.742549
-0.829353
-0.930422
-1.04896
-1.20013
-1.40077
-1.69922
-2.21254
-2.37594
-0.359327
1.4374
1.12192
0.691332
0.4439
0.282274
0.174074
0.0990054
0.0455504
0.0102122
-0.0122367
-0.0264672
-0.0321043
-0.0325844
-0.0310973
-0.0246842
-0.0160343
-0.00753658
0.00346002
0.0171409
0.032609
0.0496951
0.0682981
0.0910355
0.119034
0.153208
0.196467
0.253049
0.345513
0.416198
0.424046
0.337758
0.232388
0.163118
0.0982128
0.0448128
-0.00102676
-0.0455544
-0.0884444
-0.12885
-0.170222
-0.212391
-0.255593
-0.303424
-0.352888
-0.404269
-0.461579
-0.521865
-0.587406
-0.661002
-0.738753
-0.823759
-0.92206
-1.03998
-1.19295
-1.39065
-1.68279
-2.19072
-2.3457
-0.316962
1.44057
1.11352
0.683884
0.437679
0.277285
0.169147
0.0939389
0.0416777
0.00647592
-0.0156651
-0.0292754
-0.0350841
-0.0352583
-0.0331437
-0.0264919
-0.018058
-0.00920215
0.00241998
0.0157116
0.0305896
0.0480636
0.0675394
0.0903864
0.118104
0.152005
0.196462
0.251026
0.338003
0.40696
0.422833
0.336531
0.230242
0.162278
0.0999876
0.0462808
-0.000542911
-0.0443653
-0.0869819
-0.127416
-0.168027
-0.210389
-0.254311
-0.30108
-0.34996
-0.401923
-0.458598
-0.518002
-0.583048
-0.65561
-0.733309
-0.819025
-0.915768
-1.03193
-1.18411
-1.37997
-1.66831
-2.16271
-2.30182
-0.299526
1.44458
1.1062
0.67641
0.430091
0.271745
0.163636
0.0891665
0.0380801
0.00309958
-0.01926
-0.0327226
-0.0381864
-0.0378608
-0.0351086
-0.0287467
-0.020481
-0.0106111
0.00140424
0.0143528
0.028848
0.0461794
0.066612
0.0896448
0.117331
0.15247
0.197356
0.251654
0.338734
0.408784
0.422938
0.336511
0.229471
0.161733
0.100775
0.0472641
0.000382456
-0.0432104
-0.0855221
-0.125934
-0.166443
-0.207934
-0.251955
-0.298437
-0.346651
-0.398837
-0.455483
-0.514632
-0.578894
-0.65019
-0.72695
-0.813209
-0.910394
-1.02489
-1.17303
-1.36803
-1.65622
-2.13106
-2.25826
-0.273667
1.44524
1.09792
0.670078
0.423702
0.265084
0.157388
0.0845957
0.0340369
-0.000738464
-0.0229413
-0.0362436
-0.0409549
-0.0405169
-0.0376522
-0.0309497
-0.0227014
-0.01263
-0.000299736
0.0130484
0.0280562
0.0450288
0.0653794
0.088332
0.115577
0.151583
0.198098
0.252556
0.339258
0.409088
0.421093
0.336066
0.229141
0.160984
0.100833
0.0483193
0.00169185
-0.0415896
-0.0834856
-0.124645
-0.16541
-0.205434
-0.24924
-0.295721
-0.343059
-0.394777
-0.451566
-0.51131
-0.575042
-0.645012
-0.720531
-0.805774
-0.902958
-1.01705
-1.16208
-1.35615
-1.64074
-2.1011
-2.21843
-0.234236
1.44683
1.08986
0.659757
0.415594
0.258375
0.152473
0.0796862
0.0294528
-0.00482261
-0.0270026
-0.03997
-0.0438184
-0.0431262
-0.0403172
-0.033782
-0.0251972
-0.0143227
-0.00190675
0.0110367
0.0264682
0.0442697
0.0642039
0.0870425
0.114338
0.149512
0.197883
0.254472
0.340495
0.410523
0.426941
0.343534
0.232712
0.160497
0.101676
0.0508886
0.00381614
-0.0398235
-0.0816412
-0.1232
-0.163398
-0.202827
-0.246665
-0.292488
-0.339485
-0.390871
-0.446812
-0.50725
-0.570917
-0.639143
-0.71433
-0.798668
-0.893525
-1.0069
-1.15105
-1.34376
-1.62331
-2.07254
-2.17867
-0.201895
1.44853
1.07915
0.649923
0.406911
0.251116
0.148151
0.0747889
0.0239348
-0.00942957
-0.0313674
-0.0436683
-0.0470589
-0.046312
-0.0431276
-0.0368416
-0.0275787
-0.0156863
-0.00354761
0.00845851
0.0238428
0.0427314
0.0628317
0.086261
0.113961
0.147612
0.19604
0.253178
0.337765
0.406779
0.443437
0.360297
0.240805
0.16119
0.102887
0.0530196
0.0065282
-0.0376948
-0.0800603
-0.120881
-0.160189
-0.200002
-0.244131
-0.289257
-0.335884
-0.38717
-0.441963
-0.502243
-0.565359
-0.63231
-0.70828
-0.792118
-0.883445
-0.995288
-1.13899
-1.32938
-1.6055
-2.04416
-2.13527
-0.168489
1.44791
1.06691
0.640303
0.398336
0.243449
0.142195
0.069759
0.0185401
-0.0147677
-0.0361101
-0.0471925
-0.0504058
-0.0502154
-0.0465358
-0.039694
-0.0299888
-0.017794
-0.00565032
0.0064042
0.0217399
0.0405973
0.0612055
0.0855143
0.112842
0.145334
0.191779
0.248053
0.33226
0.398545
0.450027
0.368206
0.244085
0.161929
0.10507
0.0537992
0.00734051
-0.0355621
-0.0773498
-0.117649
-0.157104
-0.19721
-0.240955
-0.285887
-0.332226
-0.3828
-0.436989
-0.496218
-0.558528
-0.625709
-0.702004
-0.784088
-0.872959
-0.984639
-1.12723
-1.3129
-1.58385
-2.01524
-2.08183
-0.132901
1.45512
1.05648
0.630246
0.388599
0.235695
0.134325
0.063645
0.0135778
-0.0198488
-0.0410853
-0.0514845
-0.0544617
-0.0542404
-0.0501743
-0.0425272
-0.0328524
-0.0209915
-0.00793363
0.00549705
0.0204577
0.0379662
0.0592499
0.0840824
0.111078
0.143817
0.188146
0.245328
0.332172
0.396818
0.448059
0.367197
0.242305
0.161859
0.107883
0.0554658
0.00798037
-0.0335472
-0.0746203
-0.114964
-0.154402
-0.194245
-0.237008
-0.281763
-0.327652
-0.377781
-0.43179
-0.489493
-0.551356
-0.619245
-0.694351
-0.774191
-0.862981
-0.975102
-1.11464
-1.2942
-1.55651
-1.98423
-2.03499
-0.0800167
1.4521
1.04532
0.618886
0.37921
0.22773
0.125922
0.0559755
0.00780831
-0.0249933
-0.0458871
-0.0563048
-0.0593467
-0.0584218
-0.0537621
-0.0452801
-0.035703
-0.0245794
-0.0107969
0.00398569
0.0188061
0.035728
0.0572579
0.082052
0.110317
0.1442
0.186923
0.245026
0.333997
0.398131
0.447487
0.365836
0.24146
0.162895
0.109622
0.0577258
0.0103942
-0.0314796
-0.0727551
-0.112887
-0.151458
-0.190682
-0.232658
-0.277069
-0.322376
-0.372119
-0.42613
-0.482427
-0.543561
-0.611669
-0.685932
-0.763539
-0.852624
-0.963954
-1.09879
-1.27329
-1.52759
-1.94848
-1.9785
-0.0306667
1.45268
1.03207
0.607327
0.368548
0.217564
0.116617
0.0478031
0.00102017
-0.0309125
-0.0510163
-0.0610257
-0.0642929
-0.0629786
-0.0574679
-0.0485498
-0.0389872
-0.0277388
-0.0140316
0.000778209
0.0165812
0.0345037
0.0554931
0.0799595
0.110329
0.144946
0.186594
0.244542
0.333461
0.397281
0.446634
0.364066
0.242077
0.165973
0.110216
0.058269
0.0127161
-0.0292153
-0.0700954
-0.110117
-0.148566
-0.186614
-0.227326
-0.271795
-0.316971
-0.365849
-0.41941
-0.475064
-0.535258
-0.602952
-0.676495
-0.752617
-0.84049
-0.949226
-1.07966
-1.25107
-1.49986
-1.90877
-1.92001
0.0125917
1.4502
1.01714
0.591711
0.35617
0.207036
0.107379
0.0390772
-0.00681149
-0.037653
-0.0569422
-0.0662957
-0.0693721
-0.0678698
-0.0615222
-0.0525334
-0.0430501
-0.0306005
-0.0167052
-0.00283662
0.0138624
0.0329759
0.0538421
0.0782065
0.109005
0.143963
0.18682
0.244973
0.33318
0.397371
0.447056
0.363501
0.242777
0.167571
0.110324
0.0591083
0.0146956
-0.0273448
-0.066904
-0.106226
-0.144879
-0.181899
-0.221521
-0.265881
-0.310781
-0.358539
-0.411716
-0.467271
-0.52667
-0.59323
-0.664901
-0.740817
-0.827168
-0.931415
-1.0588
-1.22736
-1.47368
-1.86482
-1.84843
0.0627388
1.44871
0.997634
0.576118
0.341766
0.196512
0.0979206
0.0293178
-0.0161733
-0.0450697
-0.0633032
-0.0723663
-0.0748261
-0.0729982
-0.0661851
-0.0570979
-0.0473671
-0.0337249
-0.019341
-0.00575364
0.011085
0.030264
0.0515264
0.0766795
0.106671
0.141999
0.186933
0.244066
0.332933
0.40084
0.446068
0.363965
0.244631
0.167884
0.110981
0.0614029
0.0167027
-0.0253889
-0.0639645
-0.10171
-0.139412
-0.1765
-0.216082
-0.259412
-0.303203
-0.350156
-0.403109
-0.458594
-0.516816
-0.581658
-0.651597
-0.726927
-0.81264
-0.913769
-1.03607
-1.19982
-1.44607
-1.82039
-1.7688
0.109812
1.44977
0.977441
0.557681
0.327374
0.184128
0.0870081
0.0186807
-0.0259555
-0.0529811
-0.0706018
-0.0795803
-0.0807222
-0.078219
-0.0712487
-0.0620664
-0.0519382
-0.0377246
-0.0227244
-0.00858709
0.00812307
0.0270043
0.0484654
0.0747553
0.104923
0.141293
0.186358
0.239963
0.331228
0.405008
0.441995
0.364146
0.247843
0.16853
0.111857
0.0638298
0.0193227
-0.0223543
-0.0611028
-0.097123
-0.133145
-0.170546
-0.209961
-0.252116
-0.294744
-0.341029
-0.393536
-0.447768
-0.504588
-0.568725
-0.637134
-0.710015
-0.795612
-0.895307
-1.01286
-1.17075
-1.40989
-1.76895
-1.68183
0.185501
1.4447
0.956019
0.536974
0.310993
0.169551
0.0739303
0.00756255
-0.035908
-0.0620116
-0.0790407
-0.0875006
-0.0874551
-0.0837073
-0.0763997
-0.0672881
-0.0570424
-0.0423441
-0.0267202
-0.0124761
0.00454825
0.0239898
0.045607
0.072724
0.103339
0.139793
0.184203
0.237206
0.330816
0.406341
0.439753
0.364165
0.249368
0.168161
0.11193
0.0658311
0.0219928
-0.0188531
-0.0571252
-0.0921456
-0.127104
-0.164431
-0.202224
-0.242911
-0.2854
-0.330977
-0.382219
-0.434415
-0.489916
-0.553967
-0.621077
-0.691719
-0.775687
-0.872339
-0.988232
-1.1412
-1.36172
-1.70367
-1.59057
0.252646
1.43914
0.92931
0.51495
0.291312
0.152644
0.0597533
-0.00486345
-0.0470664
-0.0723863
-0.0880701
-0.0953797
-0.0951877
-0.0903024
-0.0822036
-0.0729122
-0.0622161
-0.0471699
-0.0315304
-0.0170711
0.000729476
0.0206467
0.0424048
0.0700483
0.101347
0.136811
0.180649
0.237113
0.332942
0.407063
0.438443
0.36239
0.248453
0.168586
0.11314
0.0673602
0.0236179
-0.0153161
-0.0517668
-0.0866673
-0.121147
-0.157565
-0.192934
-0.231561
-0.274289
-0.31918
-0.368652
-0.419043
-0.472822
-0.536116
-0.602766
-0.671714
-0.752757
-0.846435
-0.959156
-1.1045
-1.31173
-1.63477
-1.49286
0.321572
1.43337
0.9008
0.487788
0.270666
0.134606
0.0428767
-0.0191325
-0.0590024
-0.0833429
-0.0980721
-0.104154
-0.103411
-0.0977149
-0.0887601
-0.0787063
-0.0675013
-0.0530315
-0.0374422
-0.0217078
-0.0037028
0.0162481
0.0385823
0.0660208
0.0985285
0.134927
0.178637
0.236837
0.333249
0.406385
0.435428
0.35844
0.245963
0.169585
0.115164
0.0689687
0.0257225
-0.011786
-0.0465808
-0.0805486
-0.113746
-0.148468
-0.182139
-0.219022
-0.26086
-0.304763
-0.35238
-0.401217
-0.453167
-0.514933
-0.580649
-0.647324
-0.725865
-0.817969
-0.92444
-1.05944
-1.26019
-1.561
-1.38174
0.398241
1.42254
0.865632
0.459811
0.246032
0.112471
0.0234061
-0.034939
-0.0721426
-0.0954251
-0.108952
-0.113807
-0.111771
-0.105223
-0.0957724
-0.0851322
-0.0735911
-0.0597769
-0.0440052
-0.0272036
-0.00943525
0.0109287
0.0340273
0.0610113
0.0943617
0.13246
0.177183
0.236007
0.331393
0.403788
0.432787
0.35449
0.242072
0.168036
0.114906
0.0699961
0.0290636
-0.00753753
-0.0413964
-0.0730494
-0.10446
-0.13722
-0.169527
-0.204956
-0.245165
-0.28732
-0.332217
-0.379089
-0.429789
-0.489393
-0.553629
-0.618542
-0.69311
-0.781633
-0.88356
-1.0108
-1.19974
-1.46843
-1.24386
0.479291
1.40751
0.826217
0.426799
0.216234
0.0857493
0.00170932
-0.0522817
-0.087248
-0.10916
-0.12035
-0.123444
-0.120031
-0.112949
-0.103568
-0.0925564
-0.08028
-0.0666211
-0.0513019
-0.0343818
-0.0167914
0.00378794
0.0276374
0.0548359
0.0881472
0.126843
0.17332
0.234333
0.330231
0.401946
0.429344
0.348869
0.236585
0.165315
0.11301
0.0694588
0.0327498
-0.00230371
-0.0349476
-0.0639203
-0.0933508
-0.124193
-0.15463
-0.187791
-0.225839
-0.265518
-0.306912
-0.351363
-0.400666
-0.45732
-0.519024
-0.582296
-0.652121
-0.735186
-0.834584
-0.958233
-1.12657
-1.35818
-1.09656
0.580017
1.38673
0.774777
0.384297
0.179721
0.0559315
-0.0222888
-0.0724181
-0.104482
-0.123942
-0.132224
-0.132705
-0.127971
-0.120431
-0.11103
-0.100235
-0.0874912
-0.0742805
-0.0601823
-0.043364
-0.0260986
-0.00651351
0.0173987
0.0456161
0.0791715
0.118434
0.16669
0.230732
0.328638
0.399959
0.429941
0.341139
0.231451
0.16288
0.111795
0.0698268
0.0367117
0.00474658
-0.025469
-0.0526109
-0.0799928
-0.108005
-0.136342
-0.16687
-0.20171
-0.237773
-0.27537
-0.317382
-0.363948
-0.416292
-0.473152
-0.532639
-0.599621
-0.678584
-0.773664
-0.88935
-1.03814
-1.23739
-0.927462
0.687489
1.35336
0.708096
0.329424
0.135722
0.0205653
-0.0515871
-0.0965798
-0.123191
-0.1386
-0.143433
-0.140953
-0.13495
-0.126813
-0.117381
-0.107288
-0.0950576
-0.0829639
-0.0707851
-0.0551685
-0.0391049
-0.0218671
0.00101282
0.0297171
0.0637997
0.106322
0.161014
0.230644
0.332319
0.409911
0.304904
0.246016
0.172192
0.123862
0.0841048
0.0488653
0.0202416
-0.00589907
-0.0306457
-0.0543684
-0.0770783
-0.0991854
-0.123102
-0.14926
-0.1779
-0.207197
-0.238724
-0.275143
-0.313886
-0.3572
-0.404809
-0.455295
-0.513535
-0.582512
-0.666045
-0.766833
-0.890978
-1.01147
-0.620373
0.760043
1.22552
0.617929
0.251256
0.0723071
-0.0275783
-0.0875423
-0.122012
-0.140409
-0.150706
-0.152825
-0.149497
-0.143429
-0.135803
-0.127756
-0.119004
-0.109333
-0.100636
-0.0923789
-0.0820399
-0.0722712
-0.0626946
-0.0495131
-0.0332053
-0.0130436
0.0170296
0.0646056
0.139293
0.25811
0.348085
0.0804387
0.0664118
0.0513511
0.0471894
0.0289172
0.00463719
-0.0164478
-0.0341571
-0.0511976
-0.0692996
-0.0846822
-0.0979284
-0.115357
-0.135377
-0.156334
-0.176078
-0.198659
-0.22751
-0.254423
-0.285158
-0.320955
-0.356976
-0.398398
-0.448622
-0.514123
-0.594205
-0.712336
-0.93018
-0.567389
1.0477
1.37277
0.409619
0.0641148
-0.0484192
-0.105395
-0.138328
-0.154111
-0.160145
-0.164406
-0.163492
-0.160106
-0.154418
-0.147687
-0.142089
-0.135127
-0.128901
-0.125563
-0.12294
-0.119678
-0.119838
-0.122934
-0.126413
-0.133252
-0.141911
-0.144224
-0.128068
-0.0673757
0.0903318
0.21588
-32.6557
-20.4064
-5.38239
-2.84178
-1.60211
-0.968971
-0.641627
-0.459456
-0.353055
-0.288127
-0.24539
-0.220157
-0.211009
-0.206668
-0.206875
-0.212267
-0.225723
-0.243334
-0.260777
-0.283773
-0.30987
-0.337516
-0.364343
-0.395827
-0.436085
-0.483412
-0.548056
-0.710496
-0.295629
0.403081
-30.3797
-18.0615
-6.20366
-3.16511
-1.91784
-1.2769
-0.915713
-0.696757
-0.555707
-0.461863
-0.39524
-0.349518
-0.318932
-0.297176
-0.284417
-0.278614
-0.279254
-0.284055
-0.291258
-0.302462
-0.316101
-0.33137
-0.347526
-0.367339
-0.393487
-0.425833
-0.464603
-0.519192
-0.197128
0.466747
-25.9905
-15.7205
-5.71686
-3.20391
-2.11168
-1.50532
-1.1221
-0.870004
-0.702963
-0.587164
-0.501176
-0.439788
-0.396219
-0.363839
-0.342143
-0.327846
-0.319266
-0.315536
-0.31506
-0.317705
-0.322447
-0.329097
-0.336945