# vtk DataFile Version 2.0
scalar
ASCII
DATASET UNSTRUCTURED_GRID
POINTS 2010 float
1.0 0.0 0.0
0.9971 0.0 0.0004
0.9883 0.0 0.0014
0.9738 0.0 0.0031
0.9538 0.0 0.0054
0.9284 0.0 0.0083
0.898 0.0 0.0116
0.863 0.0 0.0152
0.8237 0.0 0.0192
0.7806 0.0 0.0232
0.7342 0.0 0.0274
0.6851 0.0 0.0315
0.6338 0.0 0.0355
0.5809 0.0 0.0392
0.5271 0.0 0.0425
0.4729 0.0 0.0454
0.4191 0.0 0.0477
0.3662 0.0 0.0492
0.3149 0.0 0.05
0.2658 0.0 0.0498
0.2194 0.0 0.0486
0.1763 0.0 0.0465
0.137 0.0 0.0434
0.102 0.0 0.0393
0.0716 0.0 0.0344
0.0462 0.0 0.0286
0.0262 0.0 0.0222
0.0117 0.0 0.0153
0.0029 0.0 0.0079
0.0 0.0 0.0
0.0029 0.0 -0.0079
0.0117 0.0 -0.0153
0.0262 0.0 -0.0222
0.0462 0.0 -0.0286
0.0716 0.0 -0.0344
0.102 0.0 -0.0393
0.137 0.0 -0.0434
0.1763 0.0 -0.0465
0.2194 0.0 -0.0486
0.2658 0.0 -0.0498
0.3149 0.0 -0.05
0.3662 0.0 -0.0492
0.4191 0.0 -0.0477
0.4729 0.0 -0.0454
0.5271 0.0 -0.0425
0.5809 0.0 -0.0392
0.6338 0.0 -0.0355
0.6851 0.0 -0.0315
0.7342 0.0 -0.0274
0.7806 0.0 -0.0232
0.8237 0.0 -0.0192
0.863 0.0 -0.0152
0.898 0.0 -0.0116
0.9284 0.0 -0.0083
0.9538 0.0 -0.0054
0.9738 0.0 -0.0031
0.9883 0.0 -0.0014
0.9971 0.0 -0.0004
1.0 0.0 0.0
1.0 0.1034 0.0
0.9971 0.1034 0.0003
0.9883 0.1034 0.0013
0.9738 0.1034 0.003
0.9538 0.1034 0.0052
0.9284 0.1034 0.0079
0.898 0.1034 0.0111
0.8629 0.1034 0.0145
0.8236 0.1034 0.0183
0.7805 0.1034 0.0221
0.7341 0.1034 0.026
0.6849 0.1034 0.0299
0.6336 0.1034 0.0336
0.5807 0.1034 0.0371
0.5269 0.1034 0.0402
0.4727 0.1034 0.0428
0.4189 0.1034 0.0448
0.366 0.1034 0.046
0.3147 0.1034 0.0465
0.2656 0.1034 0.0461
0.2192 0.1034 0.0447
0.1761 0.1034 0.0423
0.1368 0.1034 0.039
0.1018 0.1034 0.0348
0.0714 0.1034 0.0297
0.0461 0.1034 0.0238
0.0261 0.1034 0.0173
0.0116 0.1034 0.0103
0.0029 0.1034 0.0028
0.0 0.1034 -0.005
0.003 0.1034 -0.0129
0.0118 0.1034 -0.0203
0.0263 0.1034 -0.0272
0.0464 0.1034 -0.0334
0.0718 0.1034 -0.039
0.1022 0.1034 -0.0438
0.1372 0.1034 -0.0477
0.1766 0.1034 -0.0506
0.2197 0.1034 -0.0526
0.2661 0.1034 -0.0535
0.3152 0.1034 -0.0534
0.3665 0.1034 -0.0524
0.4194 0.1034 -0.0506
0.4732 0.1034 -0.0481
0.5273 0.1034 -0.0449
0.5811 0.1034 -0.0413
0.6339 0.1034 -0.0373
0.6852 0.1034 -0.0331
0.7343 0.1034 -0.0287
0.7807 0.1034 -0.0243
0.8238 0.1034 -0.02
0.8631 0.1034 -0.0159
0.8981 0.1034 -0.0121
0.9285 0.1034 -0.0086
0.9538 0.1034 -0.0057
0.9738 0.1034 -0.0032
0.9883 0.1034 -0.0015
0.9971 0.1034 -0.0004
1.0 0.1034 0.0
1.0 0.2069 0.0
0.9971 0.2069 0.0003
0.9883 0.2069 0.0013
0.9738 0.2069 0.0029
0.9538 0.2069 0.0051
0.9284 0.2069 0.0078
0.898 0.2069 0.0109
0.8629 0.2069 0.0144
0.8236 0.2069 0.018
0.7804 0.2069 0.0218
0.734 0.2069 0.0257
0.6849 0.2069 0.0295
0.6335 0.2069 0.0331
0.5806 0.2069 0.0365
0.5268 0.2069 0.0395
0.4726 0.2069 0.042
0.4188 0.2069 0.0439
0.3659 0.2069 0.0451
0.3146 0.2069 0.0455
0.2655 0.2069 0.045
0.2191 0.2069 0.0436
0.176 0.2069 0.0412
0.1367 0.2069 0.0378
0.1017 0.2069 0.0335
0.0714 0.2069 0.0284
0.046 0.2069 0.0225
0.026 0.2069 0.016
0.0116 0.2069 0.0089
0.0029 0.2069 0.0014
0.0 0.2069 -0.0065
0.003 0.2069 -0.0143
0.0118 0.2069 -0.0217
0.0263 0.2069 -0.0285
0.0464 0.2069 -0.0348
0.0718 0.2069 -0.0404
0.1022 0.2069 -0.0451
0.1373 0.2069 -0.0489
0.1766 0.2069 -0.0518
0.2197 0.2069 -0.0537
0.2661 0.2069 -0.0545
0.3153 0.2069 -0.0544
0.3666 0.2069 -0.0533
0.4194 0.2069 -0.0514
0.4732 0.2069 -0.0488
0.5274 0.2069 -0.0456
0.5812 0.2069 -0.0419
0.634 0.2069 -0.0378
0.6853 0.2069 -0.0335
0.7344 0.2069 -0.0291
0.7807 0.2069 -0.0247
0.8238 0.2069 -0.0203
0.8631 0.2069 -0.0161
0.8981 0.2069 -0.0122
0.9285 0.2069 -0.0087
0.9538 0.2069 -0.0057
0.9738 0.2069 -0.0033
0.9883 0.2069 -0.0015
0.9971 0.2069 -0.0004
1.0 0.2069 0.0
1.0 0.3103 0.0
0.9971 0.3103 0.0003
0.9883 0.3103 0.0013
0.9738 0.3103 0.0029
0.9537 0.3103 0.0051
0.9284 0.3103 0.0078
0.898 0.3103 0.0108
0.8629 0.3103 0.0142
0.8236 0.3103 0.0179
0.7804 0.3103 0.0216
0.734 0.3103 0.0254
0.6848 0.3103 0.0292
0.6335 0.3103 0.0328
0.5806 0.3103 0.0361
0.5268 0.3103 0.0391
0.4726 0.3103 0.0416
0.4188 0.3103 0.0434
0.3659 0.3103 0.0446
0.3146 0.3103 0.0449
0.2655 0.3103 0.0444
0.2191 0.3103 0.0429
0.176 0.3103 0.0404
0.1367 0.3103 0.037
0.1017 0.3103 0.0327
0.0713 0.3103 0.0275
0.046 0.3103 0.0216
0.026 0.3103 0.0151
0.0116 0.3103 0.008
0.0029 0.3103 0.0005
0.0 0.3103 -0.0073
0.003 0.3103 -0.0152
0.0118 0.3103 -0.0225
0.0264 0.3103 -0.0294
0.0464 0.3103 -0.0356
0.0718 0.3103 -0.0412
0.1023 0.3103 -0.0459
0.1373 0.3103 -0.0497
0.1767 0.3103 -0.0525
0.2198 0.3103 -0.0544
0.2662 0.3103 -0.0552
0.3153 0.3103 -0.055
0.3666 0.3103 -0.0539
0.4195 0.3103 -0.0519
0.4733 0.3103 -0.0493
0.5274 0.3103 -0.046
0.5812 0.3103 -0.0423
0.634 0.3103 -0.0382
0.6853 0.3103 -0.0338
0.7344 0.3103 -0.0293
0.7808 0.3103 -0.0248
0.8238 0.3103 -0.0205
0.8631 0.3103 -0.0162
0.8981 0.3103 -0.0123
0.9285 0.3103 -0.0088
0.9538 0.3103 -0.0058
0.9739 0.3103 -0.0033
0.9883 0.3103 -0.0015
0.9971 0.3103 -0.0004
1.0 0.3103 0.0
1.0 0.4138 0.0
0.9971 0.4138 0.0003
0.9883 0.4138 0.0013
0.9738 0.4138 0.0029
0.9537 0.4138 0.0051
0.9284 0.4138 0.0077
0.898 0.4138 0.0108
0.8629 0.4138 0.0142
0.8235 0.4138 0.0178
0.7804 0.4138 0.0215
0.734 0.4138 0.0253
0.6848 0.4138 0.029
0.6335 0.4138 0.0326
0.5806 0.4138 0.0359
0.5267 0.4138 0.0388
0.4726 0.4138 0.0412
0.4187 0.4138 0.0431
0.3659 0.4138 0.0442
0.3146 0.4138 0.0445
0.2654 0.4138 0.044
0.219 0.4138 0.0424
0.176 0.4138 0.04
0.1367 0.4138 0.0365
0.1017 0.4138 0.0322
0.0713 0.4138 0.027
0.046 0.4138 0.0211
0.026 0.4138 0.0145
0.0116 0.4138 0.0075
0.0029 0.4138 -0.0
0.0 0.4138 -0.0079
0.003 0.4138 -0.0158
0.0118 0.4138 -0.0231
0.0264 0.4138 -0.03
0.0465 0.4138 -0.0362
0.0719 0.4138 -0.0417
0.1023 0.4138 -0.0464
0.1374 0.4138 -0.0502
0.1767 0.4138 -0.053
0.2198 0.4138 -0.0548
0.2662 0.4138 -0.0556
0.3153 0.4138 -0.0554
0.3666 0.4138 -0.0543
0.4195 0.4138 -0.0523
0.4733 0.4138 -0.0496
0.5274 0.4138 -0.0463
0.5812 0.4138 -0.0425
0.6341 0.4138 -0.0384
0.6853 0.4138 -0.034
0.7344 0.4138 -0.0295
0.7808 0.4138 -0.025
0.8239 0.4138 -0.0206
0.8631 0.4138 -0.0163
0.8981 0.4138 -0.0124
0.9285 0.4138 -0.0089
0.9538 0.4138 -0.0058
0.9739 0.4138 -0.0033
0.9883 0.4138 -0.0015
0.9971 0.4138 -0.0004
1.0 0.4138 0.0
1.0 0.5172 0.0
0.9971 0.5172 0.0003
0.9883 0.5172 0.0013
0.9738 0.5172 0.0029
0.9537 0.5172 0.005
0.9284 0.5172 0.0077
0.898 0.5172 0.0107
0.8629 0.5172 0.0141
0.8235 0.5172 0.0177
0.7804 0.5172 0.0214
0.734 0.5172 0.0252
0.6848 0.5172 0.0289
0.6335 0.5172 0.0324
0.5806 0.5172 0.0357
0.5267 0.5172 0.0386
0.4726 0.5172 0.041
0.4187 0.5172 0.0428
0.3658 0.5172 0.0439
0.3145 0.5172 0.0442
0.2654 0.5172 0.0436
0.219 0.5172 0.0421
0.1759 0.5172 0.0396
0.1367 0.5172 0.0362
0.1017 0.5172 0.0318
0.0713 0.5172 0.0266
0.046 0.5172 0.0207
0.026 0.5172 0.0141
0.0116 0.5172 0.007
0.0029 0.5172 -0.0005
0.0 0.5172 -0.0083
0.003 0.5172 -0.0162
0.0119 0.5172 -0.0235
0.0264 0.5172 -0.0304
0.0465 0.5172 -0.0366
0.0719 0.5172 -0.0421
0.1023 0.5172 -0.0468
0.1374 0.5172 -0.0506
0.1767 0.5172 -0.0534
0.2198 0.5172 -0.0551
0.2662 0.5172 -0.0559
0.3154 0.5172 -0.0557
0.3667 0.5172 -0.0545
0.4195 0.5172 -0.0525
0.4733 0.5172 -0.0498
0.5274 0.5172 -0.0465
0.5812 0.5172 -0.0427
0.6341 0.5172 -0.0385
0.6853 0.5172 -0.0341
0.7344 0.5172 -0.0296
0.7808 0.5172 -0.0251
0.8239 0.5172 -0.0206
0.8631 0.5172 -0.0164
0.8981 0.5172 -0.0124
0.9285 0.5172 -0.0089
0.9538 0.5172 -0.0058
0.9739 0.5172 -0.0033
0.9883 0.5172 -0.0015
0.9971 0.5172 -0.0004
1.0 0.5172 0.0
1.0 0.6207 0.0
0.9971 0.6207 0.0003
0.9883 0.6207 0.0013
0.9738 0.6207 0.0029
0.9537 0.6207 0.005
0.9284 0.6207 0.0077
0.8979 0.6207 0.0107
0.8629 0.6207 0.0141
0.8235 0.6207 0.0176
0.7804 0.6207 0.0213
0.734 0.6207 0.0251
0.6848 0.6207 0.0288
0.6335 0.6207 0.0323
0.5806 0.6207 0.0356
0.5267 0.6207 0.0384
0.4726 0.6207 0.0409
0.4187 0.6207 0.0427
0.3658 0.6207 0.0437
0.3145 0.6207 0.044
0.2654 0.6207 0.0434
0.219 0.6207 0.0419
0.1759 0.6207 0.0394
0.1367 0.6207 0.0359
0.1016 0.6207 0.0315
0.0713 0.6207 0.0263
0.046 0.6207 0.0204
0.026 0.6207 0.0138
0.0116 0.6207 0.0067
0.0029 0.6207 -0.0008
0.0 0.6207 -0.0087
0.003 0.6207 -0.0165
0.0119 0.6207 -0.0239
0.0264 0.6207 -0.0307
0.0465 0.6207 -0.0369
0.0719 0.6207 -0.0424
0.1023 0.6207 -0.0471
0.1374 0.6207 -0.0508
0.1767 0.6207 -0.0536
0.2199 0.6207 -0.0554
0.2663 0.6207 -0.0561
0.3154 0.6207 -0.0559
0.3667 0.6207 -0.0547
0.4195 0.6207 -0.0527
0.4733 0.6207 -0.05
0.5275 0.6207 -0.0466
0.5812 0.6207 -0.0428
0.6341 0.6207 -0.0386
0.6854 0.6207 -0.0342
0.7345 0.6207 -0.0297
0.7808 0.6207 -0.0251
0.8239 0.6207 -0.0207
0.8631 0.6207 -0.0164
0.8982 0.6207 -0.0125
0.9285 0.6207 -0.0089
0.9538 0.6207 -0.0058
0.9739 0.6207 -0.0033
0.9883 0.6207 -0.0015
0.9971 0.6207 -0.0004
1.0 0.6207 0.0
1.0 0.7241 0.0
0.9971 0.7241 0.0003
0.9883 0.7241 0.0013
0.9738 0.7241 0.0029
0.9537 0.7241 0.005
0.9284 0.7241 0.0076
0.8979 0.7241 0.0107
0.8629 0.7241 0.014
0.8235 0.7241 0.0176
0.7804 0.7241 0.0213
0.734 0.7241 0.025
0.6848 0.7241 0.0287
0.6335 0.7241 0.0322
0.5806 0.7241 0.0355
0.5267 0.7241 0.0383
0.4725 0.7241 0.0407
0.4187 0.7241 0.0425
0.3658 0.7241 0.0436
0.3145 0.7241 0.0439
0.2654 0.7241 0.0432
0.219 0.7241 0.0417
0.1759 0.7241 0.0392
0.1367 0.7241 0.0357
0.1016 0.7241 0.0313
0.0713 0.7241 0.0261
0.046 0.7241 0.0201
0.026 0.7241 0.0136
0.0116 0.7241 0.0065
0.0029 0.7241 -0.001
0.0 0.7241 -0.0089
0.003 0.7241 -0.0167
0.0119 0.7241 -0.0241
0.0264 0.7241 -0.0309
0.0465 0.7241 -0.0371
0.0719 0.7241 -0.0426
0.1023 0.7241 -0.0473
0.1374 0.7241 -0.051
0.1768 0.7241 -0.0538
0.2199 0.7241 -0.0556
0.2663 0.7241 -0.0563
0.3154 0.7241 -0.0561
0.3667 0.7241 -0.0549
0.4196 0.7241 -0.0529
0.4734 0.7241 -0.0501
0.5275 0.7241 -0.0468
[...]
POINT_DATA 2010
SCALARS cp1 float
LOOKUP_TABLE default
0.426363
0.340731
0.223939
0.152251
0.0933304
0.0395107
-0.0103291
-0.0556302
-0.102896
-0.145832
-0.189919
-0.238392
-0.286746
-0.338326
-0.392642
-0.453221
-0.517757
-0.584526
-0.663024
-0.748766
-0.838269
-0.942912
-1.06739
-1.22061
-1.41564
-1.66844
-2.08531
-3.0075
-4.1108
-1.75022
1.46408
1.45647
0.914134
0.635446
0.450703
0.319148
0.225194
0.157068
0.107143
0.0710231
0.0485742
0.0353661
0.0257125
0.0218081
0.023461
0.0252602
0.029244
0.03606
0.0460086
0.0577044
0.0698428
0.0859423
0.105263
0.129444
0.160793
0.202431
0.247135
0.337036
0.414912
0.436299
0.36107
0.247239
0.163849
0.0992148
0.0431702
-0.00782712
-0.055346
-0.101647
-0.145451
-0.191011
-0.2391
-0.287576
-0.339872
-0.395799
-0.456174
-0.52078
-0.589947
-0.668496
-0.755753
-0.850846
-0.959666
-1.08947
-1.25133
-1.46053
-1.74665
-2.19714
-2.9263
-3.33428
-1.30865
1.18041
1.28713
0.912582
0.645494
0.457904
0.324929
0.230435
0.160858
0.109756
0.0741567
0.0510544
0.036697
0.0275344
0.0230876
0.023392
0.0257737
0.030521
0.0374603
0.0464708
0.0575257
0.0707845
0.0876166
0.10786
0.132878
0.164339
0.205858
0.258791
0.345166
0.412406
0.439571
0.360269
0.243662
0.161792
0.0973088
0.04138
-0.00843365
-0.0565237
-0.10259
-0.145765
-0.191719
-0.239901
-0.287959
-0.339968
-0.396539
-0.456635
-0.520868
-0.590755
-0.668671
-0.756008
-0.85242
-0.960495
-1.08819
-1.2465
-1.44826
-1.72711
-2.15805
-2.89592
-3.51238
-1.44439
1.26864
1.33022
0.901459
0.629271
0.444596
0.315788
0.224765
0.156987
0.106534
0.0721974
0.0495398
0.0354516
0.0273313
0.0228206
0.022612
0.0250955
0.0302248
0.037713
0.0465142
0.0565265
0.0694613
0.0873728
0.108114
0.131931
0.161887
0.201701
0.252937
0.341098
0.412152
0.437492
0.358539
0.24206
0.161275
0.0963396
0.0407006
-0.00797548
-0.0564998
-0.103005
-0.145886
-0.191456
-0.239773
-0.28826
-0.339847
-0.395966
-0.455901
-0.520448
-0.590895
-0.668203
-0.755076
-0.850707
-0.957875
-1.08462
-1.24032
-1.44039
-1.71875
-2.14964
-2.8862
-3.49519
-1.38354
1.28625
1.32422
0.896902
0.626404
0.442151
0.312876
0.222005
0.154689
0.105043
0.0708473
0.0479917
0.0338337
0.0264713
0.0224416
0.0221741
0.0244814
0.0292201
0.0373715
0.046922
0.0562899
0.0684679
0.0874852
0.108442
0.130634
0.161179
0.20269
0.254907
0.343592
0.413524
0.437683
0.35846
0.240912
0.160042
0.0964657
0.0412049
-0.00818638
-0.0567106
-0.102738
-0.145844
-0.191603
-0.239106
-0.287864
-0.33988
-0.395027
-0.454566
-0.519996
-0.589993
-0.667026
-0.753549
-0.848149
-0.955589
-1.08228
-1.23588
-1.43535
-1.71171
-2.13662
-2.87036
-3.48554
-1.35731
1.2896
1.32099
0.893022
0.621811
0.439941
0.310815
0.218428
0.151987
0.104073
0.0698137
0.046353
0.0323178
0.0251395
0.0214534
0.0214212
0.0240298
0.0288552
0.0368633
0.0461699
0.0557382
0.0685203
0.0873154
0.107506
0.129298
0.161508
0.204619
0.256491
0.344305
0.413287
0.437326
0.357811
0.239026
0.159112
0.0979058
0.0418068
-0.00882339
-0.056657
-0.10153
-0.145057
-0.191975
-0.238838
-0.286965
-0.339121
-0.39362
-0.453651
-0.51928
-0.588268
-0.664937
-0.75045
-0.845788
-0.95469
-1.07963
-1.23054
-1.4299
-1.70742
-2.12662
-2.852
-3.4548
-1.34065
1.28929
1.31742
0.889538
0.61864
0.437332
0.308153
0.215714
0.149412
0.102396
0.0685073
0.0446657
0.0310736
0.0238572
0.0200793
0.0201951
0.0233274
0.0289553
0.0363099
0.0445954
0.0551869
0.0690547
0.0864947
0.105969
0.129405
0.162923
0.205334
0.25636
0.34409
0.412656
0.437346
0.35769
0.238002
0.15821
0.09864
0.0424076
-0.00934374
-0.0563076
-0.100548
-0.144298
-0.191255
-0.237944
-0.286107
-0.338107
-0.391788
-0.45228
-0.518106
-0.586604
-0.662878
-0.747137
-0.843467
-0.952763
-1.07552
-1.22585
-1.42307
-1.69898
-2.11787
-2.83715
-3.42926
-1.29854
1.29365
1.31344
0.88564
0.615735
0.433801
0.304875
0.214003
0.147611
0.0996862
0.0664932
0.0431764
0.0295438
0.0220963
0.0185552
0.01903
0.0226272
0.028704
0.0351489
0.043165
0.0551951
0.0692676
0.0851007
0.104572
0.130544
0.16407
0.203673
0.25572
0.345082
0.412665
0.437661
0.358299
0.238249
0.157165
0.0985788
0.0439532
-0.00885163
-0.05596
-0.100192
-0.14413
-0.190047
-0.236192
-0.284787
-0.337271
-0.390181
-0.449584
-0.51579
-0.585707
-0.661395
-0.744096
-0.839798
-0.94881
-1.07068
-1.22067
-1.41621
-1.68875
-2.10782
-2.82569
-3.40579
-1.27438
1.29692
1.30939
0.881666
0.612456
0.430304
0.301598
0.211671
0.145477
0.0972394
0.0640698
0.0414464
0.0276707
0.0198838
0.0172249
0.0181379
0.021721
0.0275953
0.0336241
0.0422897
0.0550425
0.0685409
0.0837958
0.104524
0.132111
0.162955
0.199991
0.256008
0.347779
0.413607
0.437843
0.358611
0.238522
0.156635
0.0981771
0.045022
-0.00768868
-0.055535
-0.0997289
-0.143359
-0.188866
-0.23469
-0.283071
-0.33561
-0.388875
-0.446956
-0.513022
-0.584047
-0.658879
-0.741287
-0.835517
-0.943486
-1.06623
-1.21531
-1.41089
-1.67967
-2.09528
-2.81002
-3.37648
-1.24766
1.30094
1.30579
0.877146
0.60757
0.426767
0.29866
0.208318
0.142734
0.0951721
0.0613263
0.0393029
0.0259401
0.0176792
0.0158634
0.0173821
0.0200927
0.0252892
0.0325397
0.0423588
0.0541632
0.066949
0.0833342
0.105616
0.13257
0.160147
0.197374
0.257151
0.349465
0.413977
0.43784
0.358527
0.238476
0.15663
0.0976623
0.0453661
-0.00611606
-0.0547874
-0.0988867
-0.142223
-0.187556
-0.233016
-0.281203
-0.333493
-0.387545
-0.445094
-0.509949
-0.580743
-0.655309
-0.738046
-0.831233
-0.938313
-1.06141
-1.21055
-1.40572
-1.66926
-2.07913
-2.78843
-3.34208
-1.23423
1.30819
1.30165
0.872029
0.601324
0.4224
0.295492
0.205212
0.139667
0.0927438
0.0585486
0.0367533
0.0240738
0.0158933
0.0138737
0.015606
0.018189
0.0234538
0.0320659
0.0418209
0.0523813
0.0657854
0.0838165
0.106058
0.131089
0.158323
0.197459
0.257853
0.349463
0.413664
0.437856
0.358655
0.238738
0.156919
0.0974638
0.0454137
-0.004624
-0.0528472
-0.0978155
-0.141898
-0.186415
-0.23079
-0.278905
-0.33107
-0.385643
-0.44321
-0.506652
-0.576676
-0.651852
-0.734132
-0.826272
-0.933019
-1.05581
-1.20496
-1.39902
-1.659
-2.06215
-2.76358
-3.31199
-1.18882
1.31558
1.29636
0.866549
0.595833
0.417547
0.291881
0.201865
0.135983
0.0893672
0.0559604
0.0342825
0.0218193
0.0141428
0.0115056
0.0129635
0.0164592
0.0225748
0.0309754
0.0399133
0.050905
0.065564
0.0843016
0.105396
0.128501
0.157388
0.19857
0.258192
0.349442
0.413582
0.437924
0.358818
0.23904
0.157256
0.0976645
0.0452298
-0.00364668
-0.0504282
-0.0966219
-0.140774
-0.184367
-0.229241
-0.277037
-0.328176
-0.382608
-0.440511
-0.50333
-0.572602
-0.648082
-0.730299
-0.821547
-0.926611
-1.04828
-1.1973
-1.39037
-1.64877
-2.04625
-2.73815
-3.28058
-1.15367
1.33356
1.29001
0.859855
0.590611
0.413411
0.287565
0.197178
0.131561
0.0851813
0.0533008
0.0320316
0.0192128
0.0119075
0.00918802
0.0105006
0.0145611
0.0210078
0.0289736
0.0382238
0.0502928
0.0654164
0.0838169
0.103661
0.126579
0.157246
0.199068
0.258185
0.349449
0.413592
0.438034
0.358893
0.239181
0.157619
0.0982764
0.0455535
-0.00297494
-0.0491582
-0.0954949
-0.138095
-0.181379
-0.228094
-0.275219
-0.324787
-0.379045
-0.437113
-0.499888
-0.568378
-0.642996
-0.726238
-0.817356
-0.919322
-1.0396
-1.18844
-1.37967
-1.63439
-2.03016
-2.71679
-3.24056
-1.11228
1.34368
1.2833
0.853577
0.585099
0.408208
0.282066
0.192184
0.127562
0.0810548
0.0497419
0.028837
0.0158931
0.00938725
0.00686434
0.008112
0.0126004
0.0190859
0.027181
0.0368142
0.0491642
0.0644041
0.0820193
0.10139
0.126167
0.158078
0.199082
0.257923
0.349369
0.413674
0.43816
0.35909
0.239522
0.15813
0.0989853
0.0463083
-0.00240211
-0.0481808
-0.0934506
-0.135739
-0.179339
-0.225837
-0.272159
-0.321225
-0.375326
-0.433229
-0.496097
-0.564175
-0.637519
-0.720355
-0.811108
-0.912722
-1.03234
-1.17821
-1.36528
-1.6177
-2.01631
-2.694
-3.18932
-1.06631
1.35134
1.27595
0.847505
0.579653
0.401602
0.275716
0.186732
0.123322
0.0771617
0.0456412
0.0248496
0.0119378
0.00655369
0.00462838
0.0053889
0.0103654
0.0175177
0.0254529
0.0347883
0.0471739
0.0624008
0.0797586
0.100119
0.126585
0.15852
0.198962
0.257869
0.34942
0.413782
0.438215
0.35927
0.239906
0.158661
0.0996392
0.0471179
-0.001817
-0.046549
-0.090293
-0.133932
-0.177624
-0.222288
-0.268858
-0.318126
-0.371159
-0.428473
-0.491307
-0.559227
-0.631901
-0.713166
-0.803316
-0.905852
-1.02533
-1.16695
-1.34841
-1.60254
-2.00016
-2.66298
-3.13691
-1.03793
1.35961
1.26747
0.838828
0.572209
0.393632
0.269895
0.181171
0.117565
0.0726146
0.0415769
0.0207431
0.00796006
0.00325382
0.00192814
0.00232427
0.00750621
0.0151438
0.0230293
0.0328409
0.0455513
0.0605298
0.0779892
0.0993901
0.126436
0.158044
0.198562
0.257695
0.349375
0.413772
0.438207
0.359383
0.240234
0.159184
0.100491
0.0483254
-0.000795514
-0.0449626
-0.0877213
-0.131664
-0.174859
-0.218584
-0.265199
-0.314419
-0.36711
-0.423561
-0.485395
-0.552466
-0.625498
-0.706834
-0.795747
-0.896131
-1.01534
-1.15589
-1.33299
-1.58747
-1.97664
-2.62335
-3.0926
-0.986194
1.36241
1.25904
0.828721
0.563041
0.385255
0.263604
0.175946
0.111451
0.0668751
0.036614
0.0159749
0.00392018
-0.000573117
-0.00166842
-0.00049326
0.00467875
0.0117853
0.0201553
0.031056
0.0441116
0.0589424
0.0765154
0.0982882
0.125541
0.157269
0.19802
0.257353
0.349213
0.413688
0.43822
0.359552
0.240687
0.15983
0.101455
0.0495781
0.000782044
-0.0436166
-0.086068
-0.12856
-0.17085
-0.214801
-0.260856
-0.309606
-0.362484
-0.418352
-0.479091
-0.545465
-0.618608
-0.699325
-0.786787
-0.884879
-1.00344
-1.14389
-1.31771
-1.56977
-1.9497
-2.58713
-3.03416
-0.927781
1.37181
1.25001
0.818185
0.553384
0.376235
0.255625
0.169589
0.105389
0.0604161
0.0308548
0.0109695
-0.000513589
-0.0049147
-0.00589184
-0.00378461
0.00174165
0.00870139
0.0169663
0.0281951
0.0421912
0.057433
0.07499
0.0969654
0.124472
0.156435
0.19744
0.25704
0.349077
0.413597
0.438489
0.359556
0.240982
0.160407
0.101784
0.0507039
0.00355522
-0.0410446
-0.0840329
-0.125104
-0.166717
-0.210764
-0.256696
-0.304313
-0.355843
-0.412075
-0.472933
-0.53868
-0.610433
-0.689391
-0.776216
-0.873512
-0.990793
-1.12974
-1.30083
-1.54931
-1.9238
-2.55196
-2.96099
-0.865095
1.37296
1.23917
0.807063
0.543107
0.36655
0.246154
0.161454
0.0987154
0.0540813
0.0252566
0.005977
-0.00582992
-0.0103785
-0.0107973
-0.00777181
-0.00171613
0.00562519
0.0136064
0.0245734
0.039546
0.0558998
0.0736305
0.0954552
0.123225
0.155486
0.196704
0.256537
0.348841
0.413596
0.438008
0.358318
0.24105
0.161864
0.102077
0.0521443
0.00741457
-0.0371433
-0.0806351
-0.12176
-0.163422
-0.206701
-0.251624
-0.2981
-0.348689
-0.405121
-0.465371
-0.530103
-0.600622
-0.67845
-0.76482
-0.861218
-0.976993
-1.11461
-1.28329
-1.52472
-1.89117
-2.50623
-2.87236
-0.803259
1.38384
1.22702
0.794277
0.530623
0.356401
0.236289
0.152315
0.0904479
0.0469429
0.0189396
0.000108215
-0.0116863
-0.0165709
-0.0160692
-0.0119949
-0.00606174
0.00164677
0.0105909
0.0215176
0.0358887
0.052953
0.0720261
0.0942689
0.12189
0.154229
0.195749
0.255719
0.34817
0.413174
0.436719
0.356363
0.241473
0.164809
0.103737
0.0544406
0.0103238
-0.0344766
-0.0765653
-0.117651
-0.159675
-0.201757
-0.24482
-0.291234
-0.341958
-0.396929
-0.455726
-0.519743
-0.589744
-0.666705
-0.752582
-0.848007
-0.961395
-1.09689
-1.26391
-1.49676
-1.85222
-2.45269
-2.79064
-0.723394
1.3894
1.21297
0.777447
0.517396
0.345605
0.225958
0.141874
0.0805234
0.0381981
0.0112216
-0.00682337
-0.0176155
-0.0221065
-0.0213711
-0.0174568
-0.0115698
-0.00292353
0.00718517
0.018484
0.0323945
0.0490612
0.0690207
0.0928444
0.120729
0.152811
0.194715
0.254963
0.34738
0.412343
0.436169
0.355154
0.241162
0.166987
0.106946
0.0571207
0.0120062
-0.0325196
-0.0727745
-0.11244
-0.154168
-0.19578
-0.237527
-0.283394
-0.333528
-0.386985
-0.444774
-0.508315
-0.577712
-0.653428
-0.738842
-0.833345
-0.942628
-1.07494
-1.24051
-1.46649
-1.81067
-2.39347
-2.6952
-0.653701
1.40386
1.19559
0.760415
0.501842
0.332379
0.213839
0.130063
0.0704804
0.0289476
0.00230146
-0.0150064
-0.0247324
-0.0277861
-0.0272489
-0.0240341
-0.0173847
-0.00809336
0.00264201
0.0145146
0.0290065
0.0458195
0.0650686
0.0896208
0.119272
0.151958
0.193623
0.253943
0.346695
0.411855
0.435819
0.354391
0.239871
0.168146
0.11114
0.0598254
0.0136385
-0.0296125
-0.0689908
-0.107231
-0.147472
-0.188445
-0.229822
-0.274551
-0.322931
-0.375367
-0.432772
-0.495731
-0.56406
-0.638001
-0.722495
-0.815529
-0.921082
-1.05115
-1.21319
-1.43172
-1.76467
-2.32878
-2.60298
-0.563226
1.41013
1.17575
0.740216
0.484446
0.316453
0.199886
0.117678
0.0597806
0.0190548
-0.00756941
-0.0242823
-0.0333851
-0.0352037
-0.0342578
-0.0309309
-0.023084
-0.0135758
-0.00259893
0.00967718
0.0243204
0.0422194
0.0617974
0.0852714
0.115852
0.151018
0.193007
0.252729
0.345899
0.411461
0.435042
0.353815
0.239242
0.169087
0.113876
0.0615366
0.0156924
-0.0252975
-0.0640194
-0.101872
-0.140257
-0.179147
-0.220278
-0.264937
-0.311033
-0.362233
-0.419161
-0.480555
-0.547859
-0.620118
-0.702002
-0.793615
-0.897925
-1.02517
-1.18154
-1.39194
-1.71279
-2.25602
-2.49157
-0.46747
1.42201
1.15304
0.717542
0.465809
0.298842
0.183634
0.103257
0.0464892
0.00761028
-0.0183553
-0.0343382
-0.0426444
-0.0441102
-0.0423967
-0.0383885
-0.0295383
-0.0195093
-0.00878398
0.00388071
0.0185016
0.0372198
0.0587558
0.0814503
0.110734
0.148276
0.192413
0.251812
0.344898
0.410674
0.433809
0.352891
0.238815
0.169257
0.114292
0.0625374
0.0190703
-0.0197773
-0.0579122
-0.0955311
-0.132481
-0.168643
-0.208617
-0.253139
-0.297831
-0.347585
-0.403017
-0.461977
-0.527816
-0.599384
-0.678161
-0.767965
-0.871064
-0.994262
-1.14624
-1.34855
-1.65735
-2.17287
-2.35831
-0.362742
1.4294
1.12663
0.692215
0.443173
0.278498
0.165329
0.0861929
0.0309312
-0.00523322
-0.0301785
-0.0457152
-0.0525788
-0.0536155
-0.0516257
-0.046744
-0.0374199
-0.0269959
-0.0158669
-0.00296766
0.0120119
0.031471
0.053941
0.077439
0.105938
0.143106
0.189812
0.250938
0.343518
0.409543
0.431605
0.350832
0.237518
0.168661
0.114045
0.0641597
0.0234055
-0.0146994
-0.0518571
-0.087476
-0.122802
-0.15775
-0.195495
-0.237996
-0.282119
-0.33011
-0.383429
-0.440311
-0.503532
-0.574126
-0.65118
-0.73819
-0.837958
-0.956613
-1.10452
-1.29942
-1.59505
-2.07647
-2.19794
-0.236001
1.43851
1.09523
0.662761
0.415492
0.253931
0.143868
0.0673478
0.0138857
-0.0201202
-0.0440517
-0.0587845
-0.0636184
-0.0640343
-0.0619805
-0.0559216
-0.0465248
-0.0359279
-0.0239355
-0.0114279
0.00413327
0.0244815
0.046315
0.0712316
0.100855
0.136199
0.185201
0.249409
0.341404
0.407917
0.427664
0.347062
0.234724
0.166514
0.113323
0.0662391
0.0269601
-0.0102965
-0.0449471
-0.0772114
-0.110849
-0.145956
-0.180905
-0.21963
-0.262688
-0.309054
-0.359977
-0.414288
-0.474413
-0.543473
-0.619031
-0.702752
-0.798023
-0.910932
-1.05353
-1.24225
-1.52053
-1.96413
-2.02475
-0.118455
1.44177
1.05547
0.626091
0.383269
0.224694
0.118576
0.0458303
-0.00543213
-0.0380903
-0.0604336
-0.0727073
-0.0754973
-0.0757625
-0.0730877
-0.0661912
-0.0572143
-0.0463747
-0.0340731
-0.0217926
-0.00574585
0.0146086
0.0356073
0.0616525
0.0935165
0.128937
0.179298
0.245517
0.337603
0.404835
0.422085
0.340669
0.229415
0.161821
0.11105
0.0680912
0.0307546
-0.00461724
-0.0364537
-0.0658669
-0.0967996
-0.130762
-0.163483
-0.198591
-0.239159
-0.2832
-0.330914
-0.38204
-0.439229
-0.50538
-0.577723
-0.656941
-0.748275
-0.855738
-0.991515
-1.17152
-1.42884
-1.82959
-1.82635
0.0450209
1.44219
1.00595
0.580111
0.342414
0.189431
0.0888988
0.0199284
-0.028748
-0.0590235
-0.0775605
-0.0867558
-0.0892061
-0.0887756
-0.0844477
-0.0777456
-0.0696361
-0.0587069
-0.0469032
-0.0346567
-0.0189735
-7.97269e-06
0.0208318
0.0481037
0.0813482
0.118904
0.171466
0.238488
0.332008
0.400985
0.430545
0.336156
0.226817
0.158962
0.110504
0.0717043
0.0380229
0.00557176
-0.0241405
-0.0520454
-0.0796619
-0.110634
-0.142027
-0.174201
-0.210948
-0.25124
-0.294895
-0.342689
-0.395088
-0.455305
-0.52269
-0.596795
-0.683406
-0.787247
-0.914989
-1.08154
-1.31434
-1.66537
-1.58515
0.221404
1.43232
0.940374
0.520412
0.288891
0.144318
0.0508898
-0.0124644
-0.0557286
-0.0817841
-0.0949593
-0.101731
-0.104414
-0.10203
-0.0959673
-0.0901985
-0.0833612
-0.0736283
-0.063502
-0.0521286
-0.0385047
-0.0220752
-0.00123963
0.026653
0.0614984
0.105891
0.16465
0.233957
0.335746
0.420874
0.234133
0.178355
0.118806
0.0841907
0.0557255
0.0283606
0.00314333
-0.0211257
-0.0442223
-0.0665131
-0.0873841
-0.1111
-0.136608
-0.161915
-0.191239
-0.223992
-0.259476
-0.29892
-0.341051
-0.389707
-0.446192
-0.508337
-0.581067
-0.671284
-0.782724
-0.926121
-1.12162
-1.36843
-1.15026
0.407892
1.30957
0.823113
0.422248
0.203943
0.0758194
-0.0049216
-0.0564094
-0.0901401
-0.110334
-0.119667
-0.125242
-0.12757
-0.124915
-0.120582
-0.117425
-0.113462
-0.10842
-0.103838
-0.09848
-0.0935747
-0.0882312
-0.0805341
-0.0697538
-0.0536055
-0.0269128
0.0150748
0.0830202
0.207316
0.310114
-0.130338
-0.120108
-0.0927598
-0.056955
-0.0481313
-0.0579398
-0.0708666
-0.0827832
-0.0950671
-0.107269
-0.11687
-0.130425
-0.146308
-0.160328
-0.179677
-0.202399
-0.225975
-0.253204
-0.280613
-0.3137
-0.354981
-0.39691
-0.44462
-0.509371
-0.590905
-0.695046
-0.857258
-1.18091
-1.05348
0.756749
1.55908
0.645052
0.208828
0.0470759
-0.0336921
-0.0859392
-0.115845
-0.135428
-0.147548
-0.151913
-0.15674
-0.158836
-0.156559
-0.155785
-0.156828
-0.156647
-0.157979
-0.161854
-0.165874
-0.17463
-0.187376
-0.203779
-0.225398
-0.24833
-0.267221
-0.273629
-0.232095
-0.0669718
0.0723931
-19.6862
-11.1457
-0.650974
-1.33467
-0.977245
-0.692306
-0.536269
-0.432895
-0.359914
-0.310034
-0.274764
-0.254917
-0.240229
-0.233601
-0.237474
-0.244276
-0.255222
-0.272005
-0.291652
-0.316987
-0.348467
-0.379795
-0.411783
-0.456241
-0.508806
-0.572669
-0.668311
-0.897463
-0.505966
0.222817
-31.2212
-19.7713
-7.33874
-4.4553
-2.90835
-1.99109
-1.45162
-1.12019
-0.897303
-0.743307
-0.631429
-0.549819
-0.488287
-0.444427
-0.415676
-0.394892
-0.383035
-0.37881
-0.379216
-0.385354
-0.396741
-0.409731
-0.425466
-0.450404
-0.482111
-0.523159
-0.586544
-0.686746
-0.406694
0.241676
-39.2606
-24.0948
-10.0535
-5.88693
-3.88691
-2.74795
-2.02719
-1.55807
-1.24484
-1.02476
-0.864017
-0.744981
-0.656082
-0.59009
-0.541179
-0.503453
-0.476681
-0.458207
-0.44561
-0.438646
-0.436622
-0.436582
-0.440284
-0.450977
-0.464791
-0.48521
-0.525754
-0.615297
-0.335115
0.293058
-29.3682
-21.958
-11.5121
-6.62009
-4.29727
-3.0012
-2.20471
-1.69475
-1.34923
-1.10718
-0.934788
-0.807407
-0.71325
-0.641477
-0.58673
-0.545331
-0.514398
-0.491423
-0.474718
-0.463699