# vtk DataFile Version 2.0
scalar
ASCII
DATASET UNSTRUCTURED_GRID
POINTS 2010 float
1.0 0.0 0.0
0.9971 0.0 0.0004
0.9883 0.0 0.0014
0.9738 0.0 0.0031
0.9538 0.0 0.0054
0.9284 0.0 0.0083
0.898 0.0 0.0116
0.863 0.0 0.0152
0.8237 0.0 0.0192
0.7806 0.0 0.0232
0.7342 0.0 0.0274
0.6851 0.0 0.0315
0.6338 0.0 0.0355
0.5809 0.0 0.0392
0.5271 0.0 0.0425
0.4729 0.0 0.0454
0.4191 0.0 0.0477
0.3662 0.0 0.0492
0.3149 0.0 0.05
0.2658 0.0 0.0498
0.2194 0.0 0.0486
0.1763 0.0 0.0465
0.137 0.0 0.0434
0.102 0.0 0.0393
0.0716 0.0 0.0344
0.0462 0.0 0.0286
0.0262 0.0 0.0222
0.0117 0.0 0.0153
0.0029 0.0 0.0079
0.0 0.0 0.0
0.0029 0.0 -0.0079
0.0117 0.0 -0.0153
0.0262 0.0 -0.0222
0.0462 0.0 -0.0286
0.0716 0.0 -0.0344
0.102 0.0 -0.0393
0.137 0.0 -0.0434
0.1763 0.0 -0.0465
0.2194 0.0 -0.0486
0.2658 0.0 -0.0498
0.3149 0.0 -0.05
0.3662 0.0 -0.0492
0.4191 0.0 -0.0477
0.4729 0.0 -0.0454
0.5271 0.0 -0.0425
0.5809 0.0 -0.0392
0.6338 0.0 -0.0355
0.6851 0.0 -0.0315
0.7342 0.0 -0.0274
0.7806 0.0 -0.0232
0.8237 0.0 -0.0192
0.863 0.0 -0.0152
0.898 0.0 -0.0116
0.9284 0.0 -0.0083
0.9538 0.0 -0.0054
0.9738 0.0 -0.0031
0.9883 0.0 -0.0014
0.9971 0.0 -0.0004
1.0 0.0 0.0
1.0 0.1034 0.0
0.9971 0.1034 0.0003
0.9883 0.1034 0.0012
0.9738 0.1034 0.0026
0.9537 0.1034 0.0045
0.9283 0.1034 0.0068
0.8978 0.1034 0.0095
0.8627 0.1034 0.0125
0.8233 0.1034 0.0156
0.7802 0.1034 0.0188
0.7337 0.1034 0.022
0.6845 0.1034 0.0251
0.6331 0.1034 0.0281
0.5802 0.1034 0.0307
0.5263 0.1034 0.033
0.4721 0.1034 0.0348
0.4183 0.1034 0.036
0.3654 0.1034 0.0365
0.3141 0.1034 0.0361
0.2649 0.1034 0.035
0.2186 0.1034 0.0329
0.1755 0.1034 0.0299
0.1363 0.1034 0.026
0.1013 0.1034 0.0212
0.0711 0.1034 0.0156
0.0458 0.1034 0.0094
0.0259 0.1034 0.0026
0.0116 0.1034 -0.0046
0.003 0.1034 -0.0122
0.0002 0.1034 -0.0202
0.0033 0.1034 -0.0279
0.0122 0.1034 -0.0352
0.0268 0.1034 -0.0419
0.047 0.1034 -0.0479
0.0725 0.1034 -0.0531
0.1029 0.1034 -0.0574
0.1381 0.1034 -0.0607
0.1774 0.1034 -0.0631
0.2205 0.1034 -0.0644
0.2669 0.1034 -0.0646
0.3161 0.1034 -0.0638
0.3674 0.1034 -0.062
0.4202 0.1034 -0.0594
0.474 0.1034 -0.056
0.528 0.1034 -0.0521
0.5818 0.1034 -0.0476
0.6346 0.1034 -0.0428
0.6858 0.1034 -0.0378
0.7348 0.1034 -0.0327
0.7811 0.1034 -0.0277
0.8241 0.1034 -0.0227
0.8633 0.1034 -0.018
0.8983 0.1034 -0.0136
0.9286 0.1034 -0.0097
0.9539 0.1034 -0.0064
0.9739 0.1034 -0.0036
0.9883 0.1034 -0.0016
0.9971 0.1034 -0.0004
1.0 0.1034 0.0
1.0 0.2069 0.0
0.9971 0.2069 0.0003
0.9883 0.2069 0.0011
0.9738 0.2069 0.0024
0.9537 0.2069 0.0042
0.9282 0.2069 0.0064
0.8978 0.2069 0.0089
0.8626 0.2069 0.0117
0.8233 0.2069 0.0146
0.7801 0.2069 0.0176
0.7336 0.2069 0.0205
0.6844 0.2069 0.0233
0.633 0.2069 0.026
0.58 0.2069 0.0283
0.5261 0.2069 0.0303
0.4719 0.2069 0.0318
0.4181 0.2069 0.0326
0.3652 0.2069 0.0328
0.3139 0.2069 0.0322
0.2648 0.2069 0.0308
0.2184 0.2069 0.0284
0.1754 0.2069 0.0252
0.1362 0.2069 0.021
0.1012 0.2069 0.0161
0.071 0.2069 0.0103
0.0458 0.2069 0.004
0.0259 0.2069 -0.0029
0.0116 0.2069 -0.0103
0.0031 0.2069 -0.0179
0.0003 0.2069 -0.0259
0.0035 0.2069 -0.0336
0.0124 0.2069 -0.0408
0.0271 0.2069 -0.0474
0.0473 0.2069 -0.0533
0.0728 0.2069 -0.0584
0.1033 0.2069 -0.0625
0.1384 0.2069 -0.0657
0.1778 0.2069 -0.0678
0.2209 0.2069 -0.0688
0.2673 0.2069 -0.0688
0.3165 0.2069 -0.0677
0.3677 0.2069 -0.0656
0.4205 0.2069 -0.0627
0.4743 0.2069 -0.059
0.5283 0.2069 -0.0548
0.582 0.2069 -0.05
0.6348 0.2069 -0.0449
0.686 0.2069 -0.0396
0.735 0.2069 -0.0343
0.7813 0.2069 -0.0289
0.8242 0.2069 -0.0237
0.8634 0.2069 -0.0188
0.8984 0.2069 -0.0142
0.9287 0.2069 -0.0101
0.9539 0.2069 -0.0066
0.9739 0.2069 -0.0038
0.9884 0.2069 -0.0017
0.9971 0.2069 -0.0004
1.0 0.2069 0.0
1.0 0.3103 0.0
0.9971 0.3103 0.0003
0.9883 0.3103 0.0011
0.9737 0.3103 0.0023
0.9536 0.3103 0.0041
0.9282 0.3103 0.0062
0.8978 0.3103 0.0086
0.8626 0.3103 0.0112
0.8232 0.3103 0.014
0.78 0.3103 0.0168
0.7335 0.3103 0.0196
0.6843 0.3103 0.0222
0.6329 0.3103 0.0247
0.5799 0.3103 0.0269
0.526 0.3103 0.0287
0.4718 0.3103 0.0299
0.418 0.3103 0.0306
0.3651 0.3103 0.0306
0.3138 0.3103 0.0298
0.2647 0.3103 0.0282
0.2183 0.3103 0.0257
0.1753 0.3103 0.0223
0.1361 0.3103 0.018
0.1012 0.3103 0.0129
0.071 0.3103 0.0071
0.0458 0.3103 0.0007
0.0259 0.3103 -0.0063
0.0117 0.3103 -0.0137
0.0031 0.3103 -0.0214
0.0004 0.3103 -0.0293
0.0036 0.3103 -0.0371
0.0126 0.3103 -0.0443
0.0272 0.3103 -0.0508
0.0475 0.3103 -0.0566
0.073 0.3103 -0.0616
0.1035 0.3103 -0.0656
0.1386 0.3103 -0.0687
0.178 0.3103 -0.0706
0.2212 0.3103 -0.0715
0.2676 0.3103 -0.0713
0.3167 0.3103 -0.07
0.368 0.3103 -0.0678
0.4208 0.3103 -0.0647
0.4745 0.3103 -0.0609
0.5285 0.3103 -0.0564
0.5822 0.3103 -0.0515
0.635 0.3103 -0.0462
0.6861 0.3103 -0.0407
0.7351 0.3103 -0.0352
0.7814 0.3103 -0.0297
0.8243 0.3103 -0.0243
0.8635 0.3103 -0.0193
0.8984 0.3103 -0.0146
0.9287 0.3103 -0.0104
0.954 0.3103 -0.0068
0.9739 0.3103 -0.0039
0.9884 0.3103 -0.0017
0.9971 0.3103 -0.0004
1.0 0.3103 0.0
1.0 0.4138 0.0
0.9971 0.4138 0.0003
0.9883 0.4138 0.001
0.9737 0.4138 0.0023
0.9536 0.4138 0.004
0.9282 0.4138 0.006
0.8977 0.4138 0.0083
0.8626 0.4138 0.0109
0.8232 0.4138 0.0136
0.78 0.4138 0.0163
0.7335 0.4138 0.019
0.6842 0.4138 0.0215
0.6328 0.4138 0.0238
0.5799 0.4138 0.0259
0.526 0.4138 0.0275
0.4718 0.4138 0.0287
0.4179 0.4138 0.0293
0.365 0.4138 0.0291
0.3137 0.4138 0.0282
0.2646 0.4138 0.0265
0.2183 0.4138 0.0239
0.1752 0.4138 0.0204
0.1361 0.4138 0.016
0.1012 0.4138 0.0108
0.0709 0.4138 0.0049
0.0458 0.4138 -0.0016
0.026 0.4138 -0.0086
0.0117 0.4138 -0.016
0.0032 0.4138 -0.0237
0.0005 0.4138 -0.0317
0.0037 0.4138 -0.0394
0.0127 0.4138 -0.0466
0.0274 0.4138 -0.0531
0.0476 0.4138 -0.0588
0.0731 0.4138 -0.0638
0.1036 0.4138 -0.0677
0.1388 0.4138 -0.0707
0.1782 0.4138 -0.0726
0.2213 0.4138 -0.0733
0.2677 0.4138 -0.073
0.3169 0.4138 -0.0716
0.3681 0.4138 -0.0693
0.4209 0.4138 -0.0661
0.4746 0.4138 -0.0621
0.5287 0.4138 -0.0575
0.5823 0.4138 -0.0525
0.6351 0.4138 -0.0471
0.6862 0.4138 -0.0415
0.7352 0.4138 -0.0358
0.7814 0.4138 -0.0302
0.8244 0.4138 -0.0247
0.8635 0.4138 -0.0196
0.8985 0.4138 -0.0148
0.9287 0.4138 -0.0105
0.954 0.4138 -0.0069
0.9739 0.4138 -0.0039
0.9884 0.4138 -0.0018
0.9971 0.4138 -0.0004
1.0 0.4138 0.0
1.0 0.5172 0.0
0.9971 0.5172 0.0003
0.9883 0.5172 0.001
0.9737 0.5172 0.0022
0.9536 0.5172 0.0039
0.9282 0.5172 0.0059
0.8977 0.5172 0.0082
0.8626 0.5172 0.0107
0.8232 0.5172 0.0133
0.7799 0.5172 0.0159
0.7334 0.5172 0.0185
0.6842 0.5172 0.021
0.6328 0.5172 0.0232
0.5798 0.5172 0.0252
0.5259 0.5172 0.0267
0.4717 0.5172 0.0278
0.4178 0.5172 0.0283
0.3649 0.5172 0.028
0.3136 0.5172 0.0271
0.2645 0.5172 0.0252
0.2182 0.5172 0.0225
0.1752 0.5172 0.019
0.136 0.5172 0.0145
0.1011 0.5172 0.0093
0.0709 0.5172 0.0033
0.0458 0.5172 -0.0032
0.026 0.5172 -0.0103
0.0117 0.5172 -0.0177
0.0032 0.5172 -0.0254
0.0006 0.5172 -0.0334
0.0037 0.5172 -0.0411
0.0128 0.5172 -0.0483
0.0275 0.5172 -0.0548
0.0477 0.5172 -0.0605
0.0732 0.5172 -0.0653
0.1038 0.5172 -0.0693
0.1389 0.5172 -0.0722
0.1783 0.5172 -0.074
0.2215 0.5172 -0.0747
0.2679 0.5172 -0.0743
0.317 0.5172 -0.0728
0.3682 0.5172 -0.0704
0.421 0.5172 -0.0671
0.4747 0.5172 -0.063
0.5288 0.5172 -0.0583
0.5824 0.5172 -0.0532
0.6352 0.5172 -0.0477
0.6863 0.5172 -0.042
0.7353 0.5172 -0.0362
0.7815 0.5172 -0.0306
0.8244 0.5172 -0.025
0.8636 0.5172 -0.0198
0.8985 0.5172 -0.015
0.9287 0.5172 -0.0107
0.954 0.5172 -0.007
0.9739 0.5172 -0.004
0.9884 0.5172 -0.0018
0.9971 0.5172 -0.0005
1.0 0.5172 0.0
1.0 0.6207 0.0
0.9971 0.6207 0.0003
0.9883 0.6207 0.001
0.9737 0.6207 0.0022
0.9536 0.6207 0.0038
0.9282 0.6207 0.0058
0.8977 0.6207 0.008
0.8626 0.6207 0.0105
0.8231 0.6207 0.013
0.7799 0.6207 0.0156
0.7334 0.6207 0.0182
0.6842 0.6207 0.0206
0.6328 0.6207 0.0228
0.5798 0.6207 0.0246
0.5259 0.6207 0.0261
0.4717 0.6207 0.0271
0.4178 0.6207 0.0275
0.3649 0.6207 0.0272
0.3136 0.6207 0.0262
0.2645 0.6207 0.0243
0.2182 0.6207 0.0216
0.1752 0.6207 0.0179
0.136 0.6207 0.0134
0.1011 0.6207 0.0082
0.0709 0.6207 0.0022
0.0458 0.6207 -0.0044
0.026 0.6207 -0.0115
0.0118 0.6207 -0.019
0.0033 0.6207 -0.0267
0.0006 0.6207 -0.0347
0.0038 0.6207 -0.0424
0.0128 0.6207 -0.0495
0.0275 0.6207 -0.056
0.0478 0.6207 -0.0617
0.0733 0.6207 -0.0665
0.1039 0.6207 -0.0704
0.139 0.6207 -0.0732
0.1784 0.6207 -0.075
0.2216 0.6207 -0.0757
0.268 0.6207 -0.0752
0.3171 0.6207 -0.0737
0.3683 0.6207 -0.0712
0.4211 0.6207 -0.0678
0.4748 0.6207 -0.0637
0.5288 0.6207 -0.0589
0.5825 0.6207 -0.0537
0.6352 0.6207 -0.0481
0.6863 0.6207 -0.0424
0.7353 0.6207 -0.0366
0.7815 0.6207 -0.0308
0.8245 0.6207 -0.0253
0.8636 0.6207 -0.02
0.8985 0.6207 -0.0151
0.9288 0.6207 -0.0108
0.954 0.6207 -0.007
0.974 0.6207 -0.004
0.9884 0.6207 -0.0018
0.9971 0.6207 -0.0005
1.0 0.6207 0.0
1.0 0.7241 0.0
0.9971 0.7241 0.0002
0.9883 0.7241 0.001
0.9737 0.7241 0.0022
0.9536 0.7241 0.0038
0.9282 0.7241 0.0057
0.8977 0.7241 0.0079
0.8625 0.7241 0.0104
0.8231 0.7241 0.0129
0.7799 0.7241 0.0154
0.7334 0.7241 0.0179
0.6841 0.7241 0.0203
0.6327 0.7241 0.0224
0.5798 0.7241 0.0242
0.5259 0.7241 0.0257
0.4716 0.7241 0.0266
0.4178 0.7241 0.027
0.3649 0.7241 0.0266
0.3136 0.7241 0.0255
0.2645 0.7241 0.0236
0.2182 0.7241 0.0208
0.1752 0.7241 0.0171
0.136 0.7241 0.0126
0.1011 0.7241 0.0073
0.0709 0.7241 0.0013
0.0458 0.7241 -0.0054
0.026 0.7241 -0.0124
0.0118 0.7241 -0.0199
0.0033 0.7241 -0.0277
0.0006 0.7241 -0.0356
0.0038 0.7241 -0.0434
0.0129 0.7241 -0.0505
0.0276 0.7241 -0.0569
0.0478 0.7241 -0.0626
0.0734 0.7241 -0.0674
0.1039 0.7241 -0.0713
0.1391 0.7241 -0.0741
0.1785 0.7241 -0.0758
0.2216 0.7241 -0.0764
0.268 0.7241 -0.0759
0.3171 0.7241 -0.0743
0.3684 0.7241 -0.0718
0.4212 0.7241 -0.0683
[...]
POINT_DATA 2010
SCALARS cp1 float
LOOKUP_TABLE default
0.42416
0.334294
0.219273
0.155878
0.0996442
0.0491463
0.00221064
-0.0433735
-0.0859728
-0.125125
-0.165434
-0.20843
-0.253829
-0.297739
-0.344382
-0.398258
-0.45492
-0.513182
-0.576576
-0.64683
-0.720782
-0.806196
-0.906888
-1.02443
-1.17713
-1.39398
-1.75007
-2.57136
-3.59731
-1.5264
1.30983
1.31347
0.820983
0.547136
0.361129
0.231912
0.140062
0.073106
0.0284644
-0.00150827
-0.0191511
-0.026593
-0.0294012
-0.0271268
-0.0223511
-0.0156423
-0.00588418
0.00556366
0.0178767
0.0310201
0.047118
0.0675849
0.091604
0.118045
0.149722
0.193531
0.246916
0.340101
0.412321
0.424448
0.344924
0.234934
0.161843
0.10169
0.0495713
0.00178118
-0.0440288
-0.0871253
-0.128074
-0.168588
-0.210906
-0.256387
-0.302059
-0.351363
-0.405925
-0.463317
-0.524488
-0.591451
-0.666365
-0.74758
-0.840506
-0.950429
-1.08163
-1.24857
-1.48835
-1.85461
-2.38127
-2.28986
-0.285516
1.48827
1.15773
0.753266
0.503785
0.333676
0.216745
0.132879
0.0721605
0.0302276
0.00154934
-0.0156058
-0.0236775
-0.0265381
-0.0251197
-0.0210724
-0.0138901
-0.00383657
0.00717559
0.0185799
0.032367
0.0497836
0.0697311
0.0938291
0.121925
0.155601
0.20157
0.264302
0.357776
0.42319
0.420919
0.335971
0.226868
0.158219
0.0977909
0.0454433
-0.000960602
-0.0461809
-0.089248
-0.130992
-0.171124
-0.212283
-0.257749
-0.304813
-0.355153
-0.409371
-0.4666
-0.52882
-0.597047
-0.673167
-0.756102
-0.848736
-0.956498
-1.08367
-1.24119
-1.46047
-1.77936
-2.28439
-2.48193
-0.675007
1.38796
1.16786
0.721319
0.467562
0.304625
0.195726
0.118456
0.0632123
0.0251871
-0.00155623
-0.016963
-0.0243085
-0.0269438
-0.0254326
-0.0212788
-0.0138695
-0.00342099
0.00755041
0.0180285
0.0323139
0.0505641
0.0692118
0.0928467
0.121772
0.154694
0.198614
0.2621
0.361017
0.432371
0.414294
0.330671
0.225329
0.157542
0.0954327
0.0437363
-0.00131097
-0.046312
-0.0897742
-0.131666
-0.17245
-0.212975
-0.257576
-0.306026
-0.356069
-0.409402
-0.467091
-0.528706
-0.596252
-0.671371
-0.75344
-0.84379
-0.945411
-1.06667
-1.22174
-1.43705
-1.75159
-2.26001
-2.45747
-0.480574
1.44531
1.14381
0.709797
0.458565
0.296078
0.186716
0.109418
0.0557776
0.0196954
-0.00539604
-0.0194648
-0.0269041
-0.0295541
-0.027045
-0.0218131
-0.0148388
-0.00484998
0.00673613
0.0176808
0.0323726
0.0508596
0.0686844
0.0919904
0.121859
0.15533
0.199117
0.2638
0.3657
0.439735
0.414443
0.331457
0.227734
0.158248
0.0945944
0.0440313
-0.000992122
-0.0467562
-0.08991
-0.130875
-0.172689
-0.213844
-0.257413
-0.305519
-0.35476
-0.408764
-0.467437
-0.527533
-0.594535
-0.668239
-0.749083
-0.839369
-0.938086
-1.05691
-1.21068
-1.41822
-1.72516
-2.23763
-2.41884
-0.403329
1.44213
1.13133
0.697708
0.449975
0.289289
0.179915
0.102886
0.0499251
0.0148214
-0.00862085
-0.0220993
-0.0299249
-0.0323504
-0.0285314
-0.0224946
-0.0161836
-0.00683571
0.00547394
0.0175921
0.0318786
0.0501253
0.0684339
0.0914548
0.120704
0.154439
0.198835
0.260449
0.359417
0.434704
0.418603
0.335036
0.230488
0.160751
0.0970219
0.0453628
-0.000998457
-0.0471626
-0.0891147
-0.129161
-0.171988
-0.214606
-0.257698
-0.304192
-0.353153
-0.407701
-0.465806
-0.525498
-0.592847
-0.665009
-0.744276
-0.83282
-0.930889
-1.05096
-1.2022
-1.40302
-1.70441
-2.21059
-2.36908
-0.353785
1.43942
1.12128
0.687965
0.441066
0.283127
0.173749
0.0979874
0.0456006
0.00991997
-0.0124331
-0.0253828
-0.0328257
-0.0345029
-0.0304376
-0.0241524
-0.0173753
-0.00793377
0.00423945
0.0170513
0.0311227
0.048439
0.0679002
0.0905958
0.118142
0.152681
0.197616
0.253719
0.344776
0.416464
0.427261
0.343435
0.233051
0.160783
0.0992109
0.0473063
2.27044e-05
-0.046568
-0.0880431
-0.127526
-0.170907
-0.214623
-0.257342
-0.30242
-0.35188
-0.40596
-0.463032
-0.523031
-0.589734
-0.661783
-0.740114
-0.8253
-0.922784
-1.04541
-1.19468
-1.39089
-1.68846
-2.17632
-2.31987
-0.317638
1.44271
1.11324
0.681242
0.433208
0.276356
0.167881
0.0936762
0.0418918
0.0056169
-0.0160702
-0.0287694
-0.0354518
-0.0361238
-0.0329502
-0.0266822
-0.0185053
-0.00880619
0.00272874
0.016035
0.0305188
0.0465579
0.0664179
0.0896018
0.116174
0.150933
0.19675
0.250334
0.336252
0.404704
0.443301
0.359306
0.239285
0.159656
0.0995475
0.0486444
0.00136132
-0.0451714
-0.0868084
-0.126726
-0.169711
-0.213171
-0.255694
-0.300824
-0.350658
-0.403817
-0.46057
-0.521115
-0.585948
-0.65735
-0.735572
-0.81935
-0.915864
-1.03807
-1.18515
-1.37762
-1.67315
-2.15138
-2.27852
-0.29728
1.44461
1.10292
0.673018
0.427206
0.2697
0.162397
0.0889657
0.0375809
0.00197887
-0.0188597
-0.031589
-0.0381926
-0.0382107
-0.0353945
-0.0288455
-0.0200652
-0.0106188
0.00128079
0.015166
0.0295394
0.0449416
0.0650374
0.0886131
0.115158
0.148847
0.193474
0.247766
0.33249
0.398751
0.449528
0.36595
0.242034
0.160245
0.100665
0.0487236
0.00116063
-0.0437098
-0.0850257
-0.126035
-0.168197
-0.210562
-0.253842
-0.29998
-0.348792
-0.400763
-0.45802
-0.519423
-0.582811
-0.65205
-0.730035
-0.814262
-0.909509
-1.02933
-1.17612
-1.36652
-1.65467
-2.13083
-2.25068
-0.253512
1.44632
1.09533
0.665629
0.420026
0.263418
0.157239
0.084887
0.0334329
-0.00182161
-0.0221282
-0.0346543
-0.0407924
-0.0407102
-0.0375899
-0.0304679
-0.0221328
-0.0126621
0.000220458
0.0141751
0.0279987
0.0432866
0.0637999
0.0879271
0.114863
0.147573
0.190195
0.246114
0.332106
0.396521
0.446103
0.362795
0.240329
0.162335
0.103313
0.0491963
0.000781584
-0.0430664
-0.0836006
-0.124966
-0.166491
-0.208148
-0.252242
-0.298953
-0.346251
-0.397309
-0.455165
-0.516835
-0.579568
-0.64722
-0.724902
-0.809007
-0.902728
-1.01989
-1.16663
-1.35679
-1.63762
-2.10854
-2.21343
-0.215771
1.44839
1.08708
0.657841
0.414174
0.256645
0.151815
0.0803941
0.0293392
-0.00513462
-0.02604
-0.0384717
-0.0430383
-0.0428477
-0.0395216
-0.032207
-0.0244357
-0.0145295
-0.00149905
0.0124763
0.0272425
0.0425598
0.06236
0.0870818
0.114495
0.146833
0.189661
0.246876
0.333406
0.397038
0.445865
0.361679
0.239769
0.163594
0.104096
0.0490514
0.00159901
-0.0415179
-0.0825444
-0.123953
-0.164916
-0.20618
-0.250282
-0.297061
-0.343654
-0.39408
-0.451908
-0.51323
-0.575716
-0.642583
-0.719834
-0.804079
-0.895526
-1.01101
-1.15673
-1.34435
-1.62134
-2.0846
-2.17193
-0.181242
1.44884
1.07616
0.650257
0.407929
0.251562
0.146042
0.0748952
0.0246967
-0.00856203
-0.0296914
-0.0418411
-0.0455835
-0.0457102
-0.0418274
-0.0339454
-0.02616
-0.0164536
-0.00378567
0.0107457
0.0267577
0.0425963
0.061324
0.0856979
0.112906
0.145236
0.190472
0.24854
0.333948
0.397409
0.447269
0.362274
0.239652
0.163051
0.103431
0.0493762
0.00341575
-0.0397055
-0.0817514
-0.12297
-0.16327
-0.204155
-0.247908
-0.294243
-0.340955
-0.391312
-0.448336
-0.508983
-0.571497
-0.638373
-0.714166
-0.797541
-0.888831
-1.00371
-1.14691
-1.32973
-1.60609
-2.05973
-2.13781
-0.159109
1.44845
1.06749
0.641585
0.401023
0.246396
0.141477
0.0703817
0.0196838
-0.0134096
-0.0333329
-0.0443339
-0.0485701
-0.0492713
-0.0444861
-0.0358657
-0.0277363
-0.0183162
-0.00544305
0.00955403
0.0251517
0.0414337
0.0604204
0.0845548
0.112226
0.145203
0.190567
0.246987
0.333618
0.400875
0.448381
0.362644
0.238841
0.162115
0.104399
0.0514435
0.00488678
-0.0385741
-0.0805042
-0.121752
-0.161611
-0.201944
-0.245211
-0.291127
-0.338527
-0.388467
-0.443795
-0.503905
-0.566994
-0.634507
-0.708759
-0.790593
-0.881993
-0.995031
-1.13506
-1.31606
-1.59169
-2.03349
-2.10354
-0.14585
1.45536
1.05886
0.632486
0.392889
0.239277
0.136522
0.0662345
0.0153594
-0.0180302
-0.0371391
-0.0474992
-0.0522453
-0.0522959
-0.0466729
-0.0384492
-0.0300903
-0.0202086
-0.0065923
0.00820595
0.0228168
0.0398478
0.0593306
0.0835044
0.112587
0.146861
0.189726
0.241881
0.332049
0.406116
0.4463
0.362549
0.239846
0.162558
0.105991
0.0529227
0.00586558
-0.0368139
-0.0789375
-0.120488
-0.159629
-0.199589
-0.24259
-0.287805
-0.33587
-0.385701
-0.439126
-0.498369
-0.561392
-0.628791
-0.703681
-0.784848
-0.873923
-0.984759
-1.124
-1.30371
-1.57499
-2.00657
-2.06542
-0.105617
1.45405
1.05007
0.622546
0.384636
0.231385
0.130353
0.0612394
0.0114718
-0.0217394
-0.0410529
-0.0516382
-0.056471
-0.055252
-0.0490141
-0.0413148
-0.0325895
-0.0218076
-0.00797756
0.00608216
0.0204418
0.0385307
0.0587067
0.0826906
0.111796
0.147474
0.189713
0.239058
0.331089
0.408446
0.441988
0.363046
0.244222
0.164447
0.106311
0.0530677
0.00639187
-0.0350877
-0.077337
-0.118404
-0.156996
-0.197324
-0.239881
-0.283888
-0.331983
-0.382771
-0.435233
-0.492996
-0.555438
-0.622056
-0.697007
-0.778022
-0.865967
-0.975141
-1.1121
-1.2903
-1.55541
-1.97868
-2.01272
-0.0738196
1.45328
1.03916
0.612897
0.375008
0.223949
0.123285
0.0554766
0.00680429
-0.0265713
-0.0454118
-0.0552389
-0.0600676
-0.0587125
-0.0522254
-0.0442179
-0.0347621
-0.0234256
-0.010357
0.003771
0.0189547
0.03689
0.0576855
0.0817837
0.110103
0.147298
0.190634
0.239151
0.330684
0.407038
0.43974
0.363553
0.247012
0.164759
0.105707
0.0539367
0.00736774
-0.0337984
-0.0750063
-0.115435
-0.154535
-0.195122
-0.236841
-0.279988
-0.327201
-0.378648
-0.431315
-0.487494
-0.549461
-0.615855
-0.689057
-0.769709
-0.858151
-0.964307
-1.09785
-1.27561
-1.53241
-1.94673
-1.96687
-0.0284137
1.44793
1.02748
0.603124
0.36588
0.216518
0.115785
0.0486215
0.00128717
-0.0322467
-0.0506208
-0.0589058
-0.063004
-0.0620274
-0.055863
-0.0474336
-0.0370721
-0.0257588
-0.0136864
0.00166823
0.0184669
0.035564
0.0559346
0.080495
0.109529
0.146288
0.189056
0.239669
0.331803
0.406504
0.439687
0.363807
0.247331
0.163638
0.105164
0.0561053
0.00963618
-0.0326182
-0.0729338
-0.112374
-0.151657
-0.19206
-0.234021
-0.276779
-0.321831
-0.373075
-0.427008
-0.481893
-0.542303
-0.609094
-0.681311
-0.760831
-0.847937
-0.95077
-1.08447
-1.26126
-1.50771
-1.91044
-1.91422
0.014118
1.44903
1.01507
0.591771
0.355551
0.207139
0.108155
0.0416376
-0.00490533
-0.0377167
-0.0561084
-0.0639758
-0.0665432
-0.0649004
-0.0593007
-0.0512171
-0.0404277
-0.028574
-0.0163374
-0.000355664
0.0171899
0.0344914
0.0543601
0.0793942
0.109991
0.144114
0.184928
0.24019
0.334545
0.407731
0.4403
0.364182
0.247585
0.16335
0.104785
0.0574566
0.0121176
-0.0310103
-0.0713039
-0.10961
-0.148178
-0.187999
-0.230669
-0.273592
-0.316481
-0.36643
-0.421718
-0.47642
-0.534726
-0.601033
-0.672827
-0.750507
-0.835583
-0.937392
-1.07177
-1.24391
-1.48013
-1.87148
-1.86282
0.0517101
1.4488
1.00041
0.579298
0.34514
0.197221
0.0999155
0.0345995
-0.0123969
-0.0437873
-0.0611153
-0.0694651
-0.0712124
-0.0683896
-0.0629099
-0.0551702
-0.0442027
-0.031474
-0.0184039
-0.00234322
0.0149869
0.0326677
0.0529318
0.0780364
0.109427
0.143101
0.183313
0.240685
0.335975
0.408139
0.439966
0.363011
0.247087
0.16488
0.106224
0.0585643
0.0138512
-0.0293066
-0.0692081
-0.106732
-0.144632
-0.183812
-0.225996
-0.268803
-0.311584
-0.360323
-0.414514
-0.469315
-0.527495
-0.592493
-0.662744
-0.739132
-0.822541
-0.92425
-1.05683
-1.22156
-1.45191
-1.83035
-1.80163
0.0981128
1.45351
0.98446
0.564003
0.333749
0.187248
0.090528
0.026236
-0.0204592
-0.0506221
-0.066563
-0.0749156
-0.0763831
-0.0729157
-0.0671113
-0.0589979
-0.0477424
-0.0345801
-0.0210577
-0.00480145
0.0127349
0.030372
0.0509798
0.0764267
0.107875
0.143104
0.184346
0.240963
0.335571
0.407436
0.438595
0.360559
0.246072
0.167607
0.109308
0.0599527
0.0150653
-0.0271539
-0.0664175
-0.104012
-0.140954
-0.179281
-0.220479
-0.262745
-0.306448
-0.354093
-0.40602
-0.460728
-0.519395
-0.583153
-0.651668
-0.727164
-0.809223
-0.909338
-1.03878
-1.19822
-1.42477
-1.78594
-1.73982
0.138744
1.4483
0.966275
0.547828
0.320454
0.175908
0.0804161
0.0171559
-0.0282208
-0.0578643
-0.0736172
-0.0809216
-0.0816383
-0.0781902
-0.0719121
-0.0628017
-0.0511013
-0.0377463
-0.0240087
-0.00829819
0.00955104
0.0282344
0.0495281
0.0753417
0.105842
0.141685
0.185071
0.241782
0.33505
0.406792
0.438377
0.359513
0.245476
0.168496
0.110674
0.0612514
0.0167526
-0.0241232
-0.0631022
-0.100869
-0.137033
-0.174105
-0.214318
-0.256614
-0.300229
-0.34617
-0.396713
-0.451538
-0.509585
-0.571863
-0.639436
-0.713353
-0.794631
-0.893519
-1.01788
-1.17172
-1.39379
-1.74016
-1.65588
0.192399
1.44281
0.947218
0.530547
0.304596
0.162955
0.0701078
0.00745572
-0.037018
-0.0657541
-0.0813237
-0.0875663
-0.0877835
-0.0842073
-0.0770334
-0.0667047
-0.0546233
-0.0415543
-0.0273521
-0.0118461
0.00568478
0.0258232
0.0488827
0.0744623
0.103176
0.138853
0.185302
0.24326
0.335074
0.406735
0.438395
0.359224
0.244439
0.167663
0.11158
0.062839
0.0180991
-0.0214654
-0.0590384
-0.0959303
-0.132476
-0.169066
-0.207407
-0.249515
-0.292562
-0.33703
-0.386864
-0.440853
-0.497478
-0.559055
-0.62601
-0.697774
-0.778887
-0.875723
-0.992356
-1.13959
-1.35721
-1.69083
-1.58158
0.256947
1.44138
0.924586
0.509872
0.28686
0.148483
0.0586672
-0.00404149
-0.0473225
-0.0741368
-0.088632
-0.095007
-0.0953858
-0.090221
-0.0816218
-0.0711303
-0.0595037
-0.0467836
-0.0312076
-0.0143364
0.00240901
0.0225573
0.0467983
0.0721204
0.100731
0.137843
0.185871
0.244002
0.334861
0.406156
0.438141
0.358548
0.242556
0.166747
0.113163
0.0647049
0.0198157
-0.0190205
-0.0549468
-0.089891
-0.126625
-0.163423
-0.199915
-0.240792
-0.283239
-0.326999
-0.37589
-0.428128
-0.483208
-0.544571
-0.610502
-0.680155
-0.761166
-0.854177
-0.962433
-1.10797
-1.31883
-1.63062
-1.48755
0.322108
1.43355
0.896141
0.488362
0.26908
0.133266
0.0442228
-0.0171476
-0.0582998
-0.0836198
-0.0969439
-0.103074
-0.102944
-0.0963067
-0.0868456
-0.0762638
-0.0650524
-0.0521409
-0.0354454
-0.0177908
-0.00107706
0.018928
0.043101
0.0685715
0.0990925
0.137192
0.184716
0.243977
0.335593
0.405946
0.437374
0.356831
0.240614
0.167179
0.114806
0.0662362
0.0223518
-0.0162081
-0.051103
-0.0839545
-0.119786
-0.156091
-0.19129
-0.230715
-0.27226
-0.315193
-0.36265
-0.413198
-0.467257
-0.528443
-0.59208
-0.658807
-0.738634
-0.829207
-0.933032
-1.07463
-1.27619
-1.56109
-1.38462
0.390451
1.42147
0.867922
0.463812
0.248288
0.115428
0.0279517
-0.0310609
-0.0704757
-0.0949078
-0.106968
-0.111429
-0.109634
-0.10304
-0.0938125
-0.0822053
-0.0700699
-0.0567056
-0.040591
-0.0231459
-0.00536986
0.0151415
0.0386176
0.064812
0.0973072
0.134726
0.181175
0.243625
0.337166
0.40629
0.434567
0.353228
0.238624
0.168729
0.116258
0.0667195
0.0246947
-0.0121792
-0.0461215
-0.0783487
-0.112868
-0.146829
-0.180814
-0.219165
-0.259187
-0.300451
-0.346567
-0.395612
-0.448923
-0.508479
-0.569331
-0.634727
-0.711686
-0.799778
-0.901163
-1.03536
-1.22273
-1.48529
-1.27298
0.466338
1.41073
0.832563
0.43365
0.223812
0.0948904
0.00998889
-0.0472472
-0.0849351
-0.106728
-0.116993
-0.119879
-0.11679
-0.110759
-0.101315
-0.0886668
-0.0754476
-0.0617417
-0.0468107
-0.0291388
-0.0104393
0.00993683
0.033934
0.0604464
0.0929203
0.131078
0.178899
0.243159
0.33709
0.405172
0.430067
0.34969
0.237409
0.167988
0.115329
0.0672291
0.0279234
-0.00680597
-0.0402418
-0.0723816
-0.10469
-0.135647
-0.168536
-0.205451
-0.243267
-0.282983
-0.327158
-0.374593
-0.426267
-0.482503
-0.541869
-0.607373
-0.680744
-0.764251
-0.862148
-0.989398
-1.16236
-1.39964
-1.14929
0.54806
1.39517
0.793011
0.399181
0.195268
0.0708833
-0.0112439
-0.0653854
-0.100404
-0.11899
-0.127098
-0.128631
-0.124844
-0.118937
-0.108681
-0.0950665
-0.0817602
-0.0680631
-0.0536247
-0.0361608
-0.017245
0.0030269
0.0279751
0.0548211
0.0861303
0.125951
0.175291
0.23923
0.335253
0.405413
0.423714
0.345252
0.236592
0.165818
0.112528
0.0677283
0.0316312
-0.00112411
-0.0335681
-0.0643036
-0.0939123
-0.122768
-0.154372
-0.188276
-0.2233
-0.261764
-0.303312
-0.348293
-0.397379
-0.450288
-0.508781
-0.57285
-0.641735
-0.720019
-0.813446
-0.93371
-1.09235
-1.30248
-1.01237
0.635713
1.36948
0.741999
0.357234
0.161617
0.0415565
-0.0360049
-0.0848125
-0.11608
-0.132486
-0.137893
-0.137537
-0.132846
-0.126052
-0.115467
-0.10167
-0.0886457
-0.0754672
-0.0613275
-0.0451208
-0.0265742
-0.00631552
0.0184136
0.0462136
0.0777143
0.11839
0.167457
0.230644
0.331782
0.407083
0.422341
0.33815
0.233644
0.163219
0.110281
0.0686258
0.036194
0.00601844
-0.024711
-0.0533448
-0.0803258
-0.107275
-0.136762
-0.16728
-0.19895
-0.234738
-0.273462
-0.315285
-0.360337
-0.409727
-0.465292
-0.525941
-0.590952
-0.665371
-0.753806
-0.863446
-1.00649
-1.18659
-0.840005
0.741955
1.33425
0.676847
0.305442
0.118409
0.00487724
-0.0652338
-0.107225
-0.132807
-0.14542
-0.147874
-0.145485
-0.139645
-0.13148
-0.12093
-0.108084
-0.0957241
-0.083966
-0.0707038
-0.0559763
-0.0393982
-0.0207578
0.0025535
0.0308905
0.0635973
0.107063
0.161079
0.227884
0.334233
0.418111
0.306051
0.249016
0.176912
0.126231
0.0848368
0.0499555
0.022253
-0.00356958
-0.0301149
-0.0539025
-0.0757435
-0.0984517
-0.123113
-0.148525
-0.174921
-0.204251
-0.237204
-0.272775
-0.3104
-0.351982
-0.398836
-0.449897
-0.506178
-0.572116
-0.650769
-0.746521
-0.862968
-0.965667
-0.552823
0.799764
1.2072
0.589235
0.230612
0.0553314
-0.0415332
-0.097307
-0.129673
-0.148024
-0.155519
-0.156005
-0.152551
-0.14621
-0.138238
-0.129181
-0.118656
-0.108613
-0.100145
-0.0904073
-0.0801069
-0.0699465
-0.0590055
-0.0454694
-0.0289772
-0.00872396
0.0230032
0.0709298
0.144564
0.266995
0.360636
0.0979064
0.0809055
0.0616622
0.053575
0.0341552
0.0095862
-0.0108764
-0.0296296
-0.050464
-0.0663368
-0.0800748
-0.0964894
-0.114542
-0.13277
-0.151788
-0.17253
-0.197391
-0.22447
-0.251588
-0.281871
-0.316192
-0.352398
-0.392573
-0.442506
-0.503652
-0.583098
-0.696722
-0.896022
-0.507176
1.07681
1.34158
0.379351
0.046976
-0.0625014
-0.114665
-0.140918
-0.157171
-0.166336
-0.16713
-0.165074
-0.160632
-0.153856
-0.147115
-0.140946
-0.132935
-0.12592
-0.122571
-0.117956
-0.114346
-0.113723
-0.11501
-0.117795
-0.124164
-0.131013
-0.129139
-0.110036
-0.0479506
0.111451
0.237854
-30.4826
-19.0418
-5.06118
-2.71259
-1.48693
-0.923678
-0.594225
-0.429027
-0.328789
-0.26568
-0.230465
-0.210747
-0.199894
-0.195369
-0.198475
-0.207797
-0.221463
-0.237691
-0.256659
-0.278631
-0.304883
-0.330513
-0.357399
-0.390594
-0.425787
-0.470835
-0.537834
-0.688086
-0.257895
0.448558
-28.3393
-16.812
-5.71451
-2.90733
-1.75274
-1.1746
-0.837138
-0.642396
-0.513475
-0.426887
-0.36869
-0.327685
-0.298818
-0.279897
-0.270208
-0.266607
-0.26784
-0.273166
-0.281885
-0.293208
-0.307335
-0.321856
-0.338388
-0.359598
-0.382733
-0.412777
-0.453256
-0.503113
-0.167202
0.508323
-24.2088
-14.5316
-5.21707
-2.93719
-1.93287
-1.37891
-1.02826
-0.802954
-0.648601
-0.540873
-0.465155
-0.409114
-0.368694
-0.34047
-0.322026
-0.309853
-0.30259
-0.300414
-0.301687
-0.30494
-0.310592
-0.317134
-0.325709