# vtk DataFile Version 2.0
scalar
ASCII
DATASET UNSTRUCTURED_GRID
POINTS 2010 float
1.0 0.0 0.0
0.9971 0.0 0.0004
0.9883 0.0 0.0014
0.9738 0.0 0.0031
0.9538 0.0 0.0054
0.9284 0.0 0.0083
0.898 0.0 0.0116
0.863 0.0 0.0152
0.8237 0.0 0.0192
0.7806 0.0 0.0232
0.7342 0.0 0.0274
0.6851 0.0 0.0315
0.6338 0.0 0.0355
0.5809 0.0 0.0392
0.5271 0.0 0.0425
0.4729 0.0 0.0454
0.4191 0.0 0.0477
0.3662 0.0 0.0492
0.3149 0.0 0.05
0.2658 0.0 0.0498
0.2194 0.0 0.0486
0.1763 0.0 0.0465
0.137 0.0 0.0434
0.102 0.0 0.0393
0.0716 0.0 0.0344
0.0462 0.0 0.0286
0.0262 0.0 0.0222
0.0117 0.0 0.0153
0.0029 0.0 0.0079
0.0 0.0 0.0
0.0029 0.0 -0.0079
0.0117 0.0 -0.0153
0.0262 0.0 -0.0222
0.0462 0.0 -0.0286
0.0716 0.0 -0.0344
0.102 0.0 -0.0393
0.137 0.0 -0.0434
0.1763 0.0 -0.0465
0.2194 0.0 -0.0486
0.2658 0.0 -0.0498
0.3149 0.0 -0.05
0.3662 0.0 -0.0492
0.4191 0.0 -0.0477
0.4729 0.0 -0.0454
0.5271 0.0 -0.0425
0.5809 0.0 -0.0392
0.6338 0.0 -0.0355
0.6851 0.0 -0.0315
0.7342 0.0 -0.0274
0.7806 0.0 -0.0232
0.8237 0.0 -0.0192
0.863 0.0 -0.0152
0.898 0.0 -0.0116
0.9284 0.0 -0.0083
0.9538 0.0 -0.0054
0.9738 0.0 -0.0031
0.9883 0.0 -0.0014
0.9971 0.0 -0.0004
1.0 0.0 0.0
1.0 0.1034 0.0
0.9971 0.1034 0.0003
0.9883 0.1034 0.0012
0.9738 0.1034 0.0027
0.9537 0.1034 0.0047
0.9283 0.1034 0.0071
0.8979 0.1034 0.0099
0.8628 0.1034 0.0129
0.8234 0.1034 0.0162
0.7802 0.1034 0.0196
0.7338 0.1034 0.0229
0.6846 0.1034 0.0262
0.6332 0.1034 0.0293
0.5803 0.1034 0.0321
0.5264 0.1034 0.0346
0.4722 0.1034 0.0366
0.4184 0.1034 0.0379
0.3655 0.1034 0.0386
0.3142 0.1034 0.0384
0.2651 0.1034 0.0374
0.2187 0.1034 0.0355
0.1756 0.1034 0.0326
0.1364 0.1034 0.0289
0.1014 0.1034 0.0242
0.0711 0.1034 0.0188
0.0459 0.1034 0.0126
0.0259 0.1034 0.0059
0.0116 0.1034 -0.0013
0.0029 0.1034 -0.0089
0.0001 0.1034 -0.0168
0.0032 0.1034 -0.0246
0.0121 0.1034 -0.0319
0.0267 0.1034 -0.0386
0.0468 0.1034 -0.0447
0.0723 0.1034 -0.0499
0.1027 0.1034 -0.0544
0.1379 0.1034 -0.0579
0.1772 0.1034 -0.0603
0.2203 0.1034 -0.0617
0.2667 0.1034 -0.0621
0.3159 0.1034 -0.0615
0.3672 0.1034 -0.0599
0.42 0.1034 -0.0574
0.4738 0.1034 -0.0543
0.5279 0.1034 -0.0505
0.5816 0.1034 -0.0462
0.6344 0.1034 -0.0416
0.6856 0.1034 -0.0368
0.7347 0.1034 -0.0318
0.781 0.1034 -0.0269
0.824 0.1034 -0.0221
0.8633 0.1034 -0.0175
0.8983 0.1034 -0.0133
0.9286 0.1034 -0.0095
0.9539 0.1034 -0.0062
0.9739 0.1034 -0.0036
0.9883 0.1034 -0.0016
0.9971 0.1034 -0.0004
1.0 0.1034 0.0
1.0 0.2069 0.0
0.9971 0.2069 0.0003
0.9883 0.2069 0.0012
0.9738 0.2069 0.0026
0.9537 0.2069 0.0044
0.9283 0.2069 0.0067
0.8978 0.2069 0.0094
0.8627 0.2069 0.0123
0.8233 0.2069 0.0154
0.7801 0.2069 0.0185
0.7337 0.2069 0.0217
0.6845 0.2069 0.0247
0.6331 0.2069 0.0276
0.5801 0.2069 0.0301
0.5263 0.2069 0.0323
0.4721 0.2069 0.034
0.4182 0.2069 0.0352
0.3653 0.2069 0.0356
0.314 0.2069 0.0352
0.2649 0.2069 0.0339
0.2185 0.2069 0.0318
0.1755 0.2069 0.0287
0.1363 0.2069 0.0248
0.1013 0.2069 0.0199
0.071 0.2069 0.0143
0.0458 0.2069 0.0081
0.0259 0.2069 0.0013
0.0116 0.2069 -0.006
0.003 0.2069 -0.0136
0.0002 0.2069 -0.0216
0.0033 0.2069 -0.0293
0.0122 0.2069 -0.0366
0.0269 0.2069 -0.0432
0.0471 0.2069 -0.0492
0.0725 0.2069 -0.0544
0.103 0.2069 -0.0586
0.1381 0.2069 -0.062
0.1775 0.2069 -0.0642
0.2206 0.2069 -0.0654
0.267 0.2069 -0.0656
0.3162 0.2069 -0.0647
0.3674 0.2069 -0.0629
0.4203 0.2069 -0.0602
0.474 0.2069 -0.0568
0.5281 0.2069 -0.0527
0.5818 0.2069 -0.0482
0.6346 0.2069 -0.0434
0.6858 0.2069 -0.0383
0.7349 0.2069 -0.0331
0.7811 0.2069 -0.028
0.8241 0.2069 -0.023
0.8634 0.2069 -0.0182
0.8983 0.2069 -0.0138
0.9286 0.2069 -0.0098
0.9539 0.2069 -0.0064
0.9739 0.2069 -0.0037
0.9883 0.2069 -0.0017
0.9971 0.2069 -0.0004
1.0 0.2069 0.0
1.0 0.3103 0.0
0.9971 0.3103 0.0003
0.9883 0.3103 0.0011
0.9738 0.3103 0.0025
0.9537 0.3103 0.0043
0.9282 0.3103 0.0065
0.8978 0.3103 0.0091
0.8627 0.3103 0.0119
0.8233 0.3103 0.0148
0.7801 0.3103 0.0179
0.7336 0.3103 0.0209
0.6844 0.3103 0.0238
0.633 0.3103 0.0265
0.5801 0.3103 0.0289
0.5262 0.3103 0.031
0.472 0.3103 0.0325
0.4181 0.3103 0.0335
0.3652 0.3103 0.0337
0.3139 0.3103 0.0332
0.2648 0.3103 0.0318
0.2185 0.3103 0.0295
0.1754 0.3103 0.0263
0.1362 0.3103 0.0223
0.1013 0.3103 0.0173
0.071 0.3103 0.0117
0.0458 0.3103 0.0053
0.0259 0.3103 -0.0016
0.0116 0.3103 -0.0089
0.003 0.3103 -0.0165
0.0003 0.3103 -0.0244
0.0034 0.3103 -0.0322
0.0124 0.3103 -0.0394
0.027 0.3103 -0.046
0.0472 0.3103 -0.0519
0.0727 0.3103 -0.057
0.1032 0.3103 -0.0612
0.1383 0.3103 -0.0644
0.1777 0.3103 -0.0666
0.2208 0.3103 -0.0677
0.2672 0.3103 -0.0677
0.3164 0.3103 -0.0667
0.3676 0.3103 -0.0647
0.4204 0.3103 -0.0619
0.4742 0.3103 -0.0583
0.5283 0.3103 -0.0541
0.582 0.3103 -0.0494
0.6347 0.3103 -0.0444
0.6859 0.3103 -0.0392
0.735 0.3103 -0.0339
0.7812 0.3103 -0.0286
0.8242 0.3103 -0.0235
0.8634 0.3103 -0.0186
0.8984 0.3103 -0.0141
0.9287 0.3103 -0.01
0.9539 0.3103 -0.0066
0.9739 0.3103 -0.0038
0.9883 0.3103 -0.0017
0.9971 0.3103 -0.0004
1.0 0.3103 0.0
1.0 0.4138 0.0
0.9971 0.4138 0.0003
0.9883 0.4138 0.0011
0.9738 0.4138 0.0024
0.9537 0.4138 0.0042
0.9282 0.4138 0.0064
0.8978 0.4138 0.0089
0.8626 0.4138 0.0116
0.8232 0.4138 0.0145
0.7801 0.4138 0.0174
0.7336 0.4138 0.0204
0.6843 0.4138 0.0232
0.633 0.4138 0.0258
0.58 0.4138 0.0281
0.5261 0.4138 0.03
0.4719 0.4138 0.0315
0.4181 0.4138 0.0323
0.3652 0.4138 0.0325
0.3139 0.4138 0.0319
0.2647 0.4138 0.0304
0.2184 0.4138 0.028
0.1754 0.4138 0.0247
0.1362 0.4138 0.0206
0.1012 0.4138 0.0156
0.071 0.4138 0.0098
0.0458 0.4138 0.0034
0.0259 0.4138 -0.0035
0.0116 0.4138 -0.0108
0.0031 0.4138 -0.0185
0.0003 0.4138 -0.0264
0.0035 0.4138 -0.0342
0.0124 0.4138 -0.0414
0.0271 0.4138 -0.048
0.0473 0.4138 -0.0538
0.0728 0.4138 -0.0589
0.1033 0.4138 -0.063
0.1384 0.4138 -0.0661
0.1778 0.4138 -0.0682
0.221 0.4138 -0.0692
0.2674 0.4138 -0.0692
0.3165 0.4138 -0.068
0.3678 0.4138 -0.066
0.4206 0.4138 -0.063
0.4743 0.4138 -0.0593
0.5284 0.4138 -0.055
0.5821 0.4138 -0.0502
0.6348 0.4138 -0.0451
0.686 0.4138 -0.0398
0.735 0.4138 -0.0344
0.7813 0.4138 -0.029
0.8243 0.4138 -0.0238
0.8634 0.4138 -0.0189
0.8984 0.4138 -0.0143
0.9287 0.4138 -0.0102
0.9539 0.4138 -0.0067
0.9739 0.4138 -0.0038
0.9884 0.4138 -0.0017
0.9971 0.4138 -0.0004
1.0 0.4138 0.0
1.0 0.5172 0.0
0.9971 0.5172 0.0003
0.9883 0.5172 0.0011
0.9737 0.5172 0.0024
0.9537 0.5172 0.0041
0.9282 0.5172 0.0063
0.8978 0.5172 0.0087
0.8626 0.5172 0.0114
0.8232 0.5172 0.0142
0.78 0.5172 0.0171
0.7335 0.5172 0.02
0.6843 0.5172 0.0227
0.6329 0.5172 0.0253
0.58 0.5172 0.0275
0.5261 0.5172 0.0294
0.4719 0.5172 0.0307
0.418 0.5172 0.0315
0.3651 0.5172 0.0316
0.3138 0.5172 0.0309
0.2647 0.5172 0.0293
0.2184 0.5172 0.0269
0.1753 0.5172 0.0236
0.1361 0.5172 0.0193
0.1012 0.5172 0.0143
0.071 0.5172 0.0085
0.0458 0.5172 0.0021
0.0259 0.5172 -0.0049
0.0116 0.5172 -0.0122
0.0031 0.5172 -0.0199
0.0004 0.5172 -0.0278
0.0035 0.5172 -0.0356
0.0125 0.5172 -0.0428
0.0272 0.5172 -0.0493
0.0474 0.5172 -0.0552
0.0729 0.5172 -0.0602
0.1034 0.5172 -0.0643
0.1385 0.5172 -0.0674
0.1779 0.5172 -0.0694
0.2211 0.5172 -0.0703
0.2675 0.5172 -0.0702
0.3166 0.5172 -0.069
0.3679 0.5172 -0.0669
0.4207 0.5172 -0.0638
0.4744 0.5172 -0.0601
0.5284 0.5172 -0.0557
0.5821 0.5172 -0.0508
0.6349 0.5172 -0.0456
0.6861 0.5172 -0.0402
0.7351 0.5172 -0.0348
0.7813 0.5172 -0.0293
0.8243 0.5172 -0.0241
0.8635 0.5172 -0.019
0.8984 0.5172 -0.0144
0.9287 0.5172 -0.0103
0.954 0.5172 -0.0067
0.9739 0.5172 -0.0038
0.9884 0.5172 -0.0017
0.9971 0.5172 -0.0004
1.0 0.5172 0.0
1.0 0.6207 0.0
0.9971 0.6207 0.0003
0.9883 0.6207 0.0011
0.9737 0.6207 0.0024
0.9537 0.6207 0.0041
0.9282 0.6207 0.0062
0.8978 0.6207 0.0086
0.8626 0.6207 0.0113
0.8232 0.6207 0.0141
0.78 0.6207 0.0169
0.7335 0.6207 0.0197
0.6843 0.6207 0.0224
0.6329 0.6207 0.0249
0.5799 0.6207 0.0271
0.526 0.6207 0.0289
0.4718 0.6207 0.0302
0.418 0.6207 0.0309
0.3651 0.6207 0.0309
0.3138 0.6207 0.0302
0.2647 0.6207 0.0286
0.2183 0.6207 0.0261
0.1753 0.6207 0.0227
0.1361 0.6207 0.0184
0.1012 0.6207 0.0133
0.071 0.6207 0.0075
0.0458 0.6207 0.0011
0.0259 0.6207 -0.0059
0.0117 0.6207 -0.0133
0.0031 0.6207 -0.0209
0.0004 0.6207 -0.0289
0.0036 0.6207 -0.0366
0.0125 0.6207 -0.0438
0.0272 0.6207 -0.0504
0.0474 0.6207 -0.0562
0.073 0.6207 -0.0612
0.1035 0.6207 -0.0652
0.1386 0.6207 -0.0683
0.178 0.6207 -0.0703
0.2211 0.6207 -0.0712
0.2675 0.6207 -0.071
0.3167 0.6207 -0.0697
0.3679 0.6207 -0.0675
0.4207 0.6207 -0.0644
0.4745 0.6207 -0.0606
0.5285 0.6207 -0.0562
0.5822 0.6207 -0.0513
0.6349 0.6207 -0.046
0.6861 0.6207 -0.0406
0.7351 0.6207 -0.0351
0.7814 0.6207 -0.0296
0.8243 0.6207 -0.0242
0.8635 0.6207 -0.0192
0.8984 0.6207 -0.0145
0.9287 0.6207 -0.0103
0.954 0.6207 -0.0068
0.9739 0.6207 -0.0039
0.9884 0.6207 -0.0017
0.9971 0.6207 -0.0004
1.0 0.6207 0.0
1.0 0.7241 0.0
0.9971 0.7241 0.0003
0.9883 0.7241 0.0011
0.9737 0.7241 0.0023
0.9536 0.7241 0.0041
0.9282 0.7241 0.0062
0.8977 0.7241 0.0086
0.8626 0.7241 0.0112
0.8232 0.7241 0.0139
0.78 0.7241 0.0167
0.7335 0.7241 0.0195
0.6843 0.7241 0.0221
0.6329 0.7241 0.0246
0.5799 0.7241 0.0267
0.526 0.7241 0.0285
0.4718 0.7241 0.0298
0.4179 0.7241 0.0304
0.3651 0.7241 0.0304
0.3137 0.7241 0.0296
0.2646 0.7241 0.028
0.2183 0.7241 0.0254
0.1753 0.7241 0.022
0.1361 0.7241 0.0177
0.1012 0.7241 0.0126
0.071 0.7241 0.0068
0.0458 0.7241 0.0003
0.0259 0.7241 -0.0067
0.0117 0.7241 -0.0141
0.0031 0.7241 -0.0217
0.0004 0.7241 -0.0297
0.0036 0.7241 -0.0374
0.0126 0.7241 -0.0446
0.0273 0.7241 -0.0511
0.0475 0.7241 -0.0569
0.073 0.7241 -0.0619
0.1035 0.7241 -0.0659
0.1387 0.7241 -0.069
0.178 0.7241 -0.0709
0.2212 0.7241 -0.0718
0.2676 0.7241 -0.0716
0.3167 0.7241 -0.0703
0.368 0.7241 -0.068
0.4208 0.7241 -0.0649
[...]
POINT_DATA 2010
SCALARS cp1 float
LOOKUP_TABLE default
0.423528
0.33662
0.222538
0.155526
0.0973324
0.0447412
-0.00223393
-0.0445339
-0.0895929
-0.13174
-0.172114
-0.216296
-0.261457
-0.306627
-0.356516
-0.411925
-0.468804
-0.530227
-0.597136
-0.668962
-0.746643
-0.836398
-0.942588
-1.06834
-1.23281
-1.45715
-1.82375
-2.66274
-3.71408
-1.5964
1.33054
1.34502
0.84471
0.568909
0.3847
0.253422
0.157237
0.0936638
0.0500335
0.0167953
-0.00383464
-0.0120403
-0.015258
-0.0160091
-0.0113071
-0.00453357
0.00214492
0.011927
0.0255163
0.038627
0.0528987
0.073209
0.0937986
0.120054
0.155143
0.19255
0.243369
0.341641
0.414226
0.428839
0.350736
0.238027
0.160264
0.10025
0.0470767
-0.00194286
-0.0459942
-0.0901896
-0.133319
-0.175046
-0.218838
-0.264084
-0.310457
-0.361578
-0.417729
-0.477306
-0.541484
-0.610081
-0.68567
-0.770211
-0.867572
-0.982943
-1.12032
-1.29864
-1.54875
-1.93297
-2.50635
-2.51533
-0.504998
1.44145
1.19403
0.792066
0.538091
0.364375
0.242491
0.153509
0.0934568
0.0513906
0.019924
-3.08188e-05
-0.00955041
-0.0134807
-0.0140965
-0.00975922
-0.00317287
0.00363478
0.0136153
0.02656
0.0396134
0.0549375
0.0746366
0.0963332
0.124261
0.159432
0.200098
0.260176
0.357606
0.424546
0.428426
0.344854
0.22934
0.153896
0.0973095
0.0457884
-0.0046958
-0.0491137
-0.091843
-0.135024
-0.17745
-0.220821
-0.2657
-0.312303
-0.363612
-0.420042
-0.480908
-0.546029
-0.615005
-0.691358
-0.776512
-0.874261
-0.989159
-1.12145
-1.29046
-1.52164
-1.86035
-2.42412
-2.71226
-0.843989
1.36497
1.20985
0.765152
0.505889
0.338729
0.22442
0.142065
0.0855116
0.0459832
0.0168758
-0.00119918
-0.0104227
-0.0143823
-0.0144919
-0.00970652
-0.00287206
0.00389436
0.0137446
0.0263933
0.0392936
0.0546395
0.073876
0.0959657
0.124686
0.158317
0.196583
0.256184
0.358768
0.432422
0.422082
0.340068
0.228012
0.154302
0.0965796
0.044631
-0.0055763
-0.0501524
-0.0917559
-0.134864
-0.178527
-0.221733
-0.266194
-0.313066
-0.364521
-0.420433
-0.480526
-0.545413
-0.615394
-0.691005
-0.773175
-0.868726
-0.980991
-1.10972
-1.27341
-1.49709
-1.83484
-2.40604
-2.69341
-0.673796
1.416
1.191
0.755599
0.498868
0.330941
0.216901
0.136526
0.0796948
0.0399504
0.0126425
-0.00363988
-0.0127853
-0.0163929
-0.0154875
-0.0107571
-0.00354314
0.00405741
0.013316
0.0253982
0.0392987
0.0546772
0.0731929
0.0963102
0.124895
0.15727
0.197441
0.259329
0.361681
0.434549
0.41856
0.33628
0.226744
0.15559
0.0959607
0.0424601
-0.00600054
-0.0499761
-0.0917819
-0.134578
-0.178612
-0.221935
-0.266379
-0.313555
-0.364733
-0.419925
-0.478796
-0.543897
-0.614407
-0.688892
-0.770295
-0.864231
-0.973866
-1.1025
-1.26229
-1.48013
-1.81748
-2.38189
-2.65144
-0.613728
1.42316
1.18084
0.746115
0.491225
0.324011
0.21045
0.131372
0.0753701
0.035856
0.0092163
-0.00648025
-0.0154447
-0.0180537
-0.0166932
-0.0124703
-0.00465346
0.00398459
0.012841
0.0243381
0.039176
0.0547431
0.0731714
0.0962799
0.12311
0.156242
0.20038
0.263502
0.362566
0.433993
0.417997
0.333825
0.223503
0.153828
0.0953909
0.0421444
-0.00520961
-0.0499098
-0.09252
-0.134579
-0.177834
-0.221011
-0.266178
-0.313547
-0.364318
-0.418757
-0.477078
-0.541957
-0.611924
-0.685589
-0.767852
-0.861063
-0.965965
-1.09189
-1.25193
-1.47055
-1.80219
-2.35534
-2.6119
-0.571388
1.42392
1.17166
0.738479
0.483821
0.317866
0.205314
0.125922
0.0706478
0.0322776
0.00615444
-0.00920971
-0.0175514
-0.0194246
-0.0182409
-0.0144982
-0.0062503
0.00347064
0.0123633
0.0230032
0.0380416
0.0544494
0.073515
0.0967752
0.123001
0.156402
0.201499
0.265032
0.363635
0.434447
0.419325
0.333211
0.222255
0.153447
0.0946965
0.0421293
-0.00480866
-0.0503885
-0.0929332
-0.134325
-0.176686
-0.219626
-0.265196
-0.312617
-0.36348
-0.418023
-0.475238
-0.538671
-0.608798
-0.683151
-0.764381
-0.855731
-0.958373
-1.08262
-1.24362
-1.46284
-1.78252
-2.32313
-2.58194
-0.526909
1.42976
1.16523
0.731418
0.477578
0.312544
0.201099
0.121445
0.0661581
0.0282086
0.00252667
-0.0118242
-0.0191838
-0.0209612
-0.0197812
-0.0163301
-0.00821906
0.0022934
0.0115109
0.0217373
0.0370077
0.0541604
0.0731031
0.0969238
0.124101
0.156292
0.199321
0.263474
0.365595
0.438679
0.419882
0.33201
0.222027
0.155573
0.0954564
0.0416203
-0.00583321
-0.0504719
-0.0921042
-0.133838
-0.175638
-0.218135
-0.264196
-0.311256
-0.361549
-0.416359
-0.473603
-0.535886
-0.605827
-0.679937
-0.758617
-0.849013
-0.953297
-1.07759
-1.23549
-1.45108
-1.76687
-2.29876
-2.54336
-0.495854
1.43004
1.15763
0.724044
0.471428
0.307799
0.196156
0.117456
0.0629552
0.0244762
-0.00103815
-0.0143722
-0.0212493
-0.0233552
-0.021649
-0.0177955
-0.0102469
0.000342127
0.0106714
0.0216489
0.0363909
0.053255
0.072213
0.0957909
0.123324
0.157263
0.198907
0.259706
0.365379
0.443781
0.417406
0.330691
0.22286
0.156726
0.0961868
0.0421251
-0.0054173
-0.049353
-0.0910492
-0.133419
-0.174618
-0.216585
-0.262947
-0.310114
-0.359471
-0.413602
-0.471659
-0.533766
-0.601684
-0.674552
-0.753314
-0.844227
-0.949392
-1.07227
-1.22582
-1.43761
-1.75593
-2.28058
-2.49527
-0.471793
1.42753
1.1503
0.71759
0.465695
0.302862
0.190941
0.113771
0.0596875
0.0207241
-0.0040472
-0.0164725
-0.0236812
-0.0264644
-0.0239498
-0.0191788
-0.0120087
-0.00156035
0.00966459
0.0213524
0.0354467
0.051944
0.0713965
0.0947096
0.121749
0.157629
0.20029
0.258496
0.364524
0.445604
0.413205
0.33077
0.226418
0.156777
0.0949703
0.0433249
-0.0039286
-0.0481535
-0.0898181
-0.132401
-0.174037
-0.215732
-0.26078
-0.308134
-0.3579
-0.410811
-0.468418
-0.530722
-0.597576
-0.669154
-0.749156
-0.840917
-0.943443
-1.06288
-1.21705
-1.42729
-1.73894
-2.25817
-2.45733
-0.443204
1.42683
1.14307
0.711426
0.45954
0.297524
0.186878
0.109635
0.0555557
0.0167377
-0.00707083
-0.0188409
-0.0262686
-0.0293304
-0.0262278
-0.0208457
-0.0135994
-0.00291093
0.00821634
0.0197612
0.0341088
0.0508542
0.0705561
0.0944127
0.121384
0.156321
0.200392
0.259778
0.364329
0.444776
0.410611
0.330936
0.228843
0.156313
0.0941046
0.0448415
-0.00329398
-0.047944
-0.0884193
-0.130785
-0.173171
-0.214559
-0.258182
-0.305252
-0.355814
-0.408259
-0.464281
-0.526766
-0.594231
-0.664931
-0.744707
-0.836305
-0.935257
-1.05223
-1.20931
-1.41722
-1.72095
-2.23483
-2.42566
-0.409696
1.43707
1.13545
0.703731
0.452794
0.292638
0.182138
0.103977
0.0505567
0.0139698
-0.00970657
-0.0225521
-0.0292867
-0.0314493
-0.0284937
-0.0230768
-0.0153975
-0.00438016
0.00685975
0.0181116
0.0325755
0.049968
0.0695603
0.0935967
0.121703
0.156027
0.200065
0.260611
0.364148
0.443584
0.410382
0.331129
0.229143
0.155658
0.0937961
0.0455665
-0.00247134
-0.0472622
-0.0875691
-0.129167
-0.171004
-0.212358
-0.256305
-0.302398
-0.352357
-0.405618
-0.460775
-0.52229
-0.590183
-0.661487
-0.74008
-0.829897
-0.927087
-1.04328
-1.19921
-1.40313
-1.70581
-2.21634
-2.39355
-0.362091
1.44054
1.12525
0.69313
0.446613
0.287517
0.176549
0.0982339
0.0460576
0.0114446
-0.0128178
-0.0269282
-0.0325346
-0.033575
-0.0309265
-0.0254708
-0.0172873
-0.00628643
0.00528688
0.0170218
0.0313254
0.0487718
0.0684998
0.0927187
0.121579
0.156059
0.198803
0.260343
0.365364
0.443651
0.410757
0.331438
0.228602
0.155687
0.0946143
0.0455881
-0.0012096
-0.0453191
-0.0866682
-0.12739
-0.168149
-0.210187
-0.254852
-0.299896
-0.34831
-0.401821
-0.457596
-0.518171
-0.585287
-0.656743
-0.734446
-0.822496
-0.919475
-1.03606
-1.18835
-1.38703
-1.68855
-2.1947
-2.35512
-0.327692
1.44271
1.1162
0.684581
0.439637
0.281193
0.170265
0.0933234
0.0420553
0.00753541
-0.0170628
-0.0309975
-0.0355131
-0.0361715
-0.0337279
-0.0277904
-0.0193653
-0.00854398
0.00337551
0.0159899
0.0302361
0.0473853
0.0679752
0.0916453
0.120271
0.155605
0.196456
0.259432
0.367797
0.444812
0.409738
0.330788
0.227197
0.156214
0.0972647
0.0460766
-0.000750652
-0.0431297
-0.0850459
-0.125223
-0.165224
-0.20831
-0.252766
-0.297187
-0.344884
-0.397566
-0.453795
-0.514003
-0.579674
-0.650294
-0.728346
-0.815184
-0.911315
-1.02836
-1.17926
-1.37352
-1.66723
-2.16443
-2.31177
-0.293348
1.44467
1.10673
0.676383
0.43169
0.272575
0.164244
0.0890733
0.0376098
0.0028649
-0.0211758
-0.0349549
-0.0389283
-0.0390075
-0.0365671
-0.0305289
-0.0219399
-0.0106937
0.00125283
0.0141806
0.0290733
0.046187
0.0668558
0.0897567
0.119142
0.1559
0.195533
0.259464
0.369913
0.447168
0.412966
0.333403
0.228372
0.157302
0.0994983
0.0479157
0.000690173
-0.0411394
-0.0829553
-0.122561
-0.162633
-0.20627
-0.249722
-0.293476
-0.341343
-0.39335
-0.449073
-0.509295
-0.574112
-0.643814
-0.72133
-0.806853
-0.903358
-1.01925
-1.16792
-1.36048
-1.64573
-2.1301
-2.26421
-0.256409
1.44691
1.09616
0.668082
0.42311
0.264103
0.158039
0.0839926
0.0327441
-0.00217398
-0.0252003
-0.0388639
-0.0432301
-0.0425753
-0.0395483
-0.0335025
-0.024395
-0.0127009
-0.0013341
0.0115834
0.0276988
0.0447494
0.0645786
0.08823
0.118827
0.15528
0.194723
0.256536
0.362348
0.437936
0.422111
0.339945
0.232432
0.159057
0.100773
0.051072
0.00401643
-0.0389819
-0.0807124
-0.12012
-0.160883
-0.203671
-0.245509
-0.288889
-0.337092
-0.389118
-0.44416
-0.503812
-0.568433
-0.637547
-0.713039
-0.797238
-0.895333
-1.01029
-1.15332
-1.34368
-1.62374
-2.09614
-2.21476
-0.216699
1.44889
1.08481
0.657917
0.413375
0.25673
0.150832
0.0770708
0.0271033
-0.00748967
-0.0294901
-0.0425756
-0.0478604
-0.0469524
-0.0428565
-0.0362088
-0.0267183
-0.0153135
-0.00415281
0.00874639
0.0254406
0.0429662
0.0624881
0.0876983
0.118264
0.152116
0.192467
0.250141
0.345389
0.416131
0.425643
0.342026
0.235023
0.162293
0.102238
0.0528357
0.00627061
-0.0373366
-0.0784143
-0.117728
-0.158452
-0.199828
-0.240629
-0.284471
-0.332793
-0.384818
-0.43895
-0.496748
-0.561398
-0.630913
-0.704808
-0.786984
-0.885465
-1.00019
-1.13794
-1.3239
-1.60141
-2.06367
-2.16336
-0.176293
1.44756
1.07354
0.647041
0.403514
0.248526
0.142746
0.0693477
0.0204693
-0.0131814
-0.034318
-0.0466306
-0.0523873
-0.051539
-0.0462828
-0.0390001
-0.0297689
-0.0186188
-0.00676474
0.00592631
0.0225681
0.0413518
0.0610923
0.0868252
0.116389
0.148449
0.191772
0.248804
0.338055
0.407463
0.42396
0.339897
0.235725
0.166299
0.103588
0.0527366
0.00767903
-0.0356503
-0.0761381
-0.114657
-0.154677
-0.195219
-0.236467
-0.280498
-0.327692
-0.379085
-0.432464
-0.489945
-0.554146
-0.62267
-0.695683
-0.776797
-0.874349
-0.98734
-1.12136
-1.30429
-1.57935
-2.03091
-2.09784
-0.135343
1.45017
1.05996
0.633026
0.391781
0.238822
0.134521
0.0622403
0.0133076
-0.0198174
-0.0406139
-0.0515462
-0.0564902
-0.0560982
-0.0504138
-0.0424861
-0.0333674
-0.021855
-0.00950484
0.00304681
0.0203051
0.0399366
0.0594694
0.0846223
0.113702
0.146899
0.192899
0.250399
0.338763
0.40945
0.423574
0.338606
0.235062
0.167788
0.104941
0.0534652
0.00962631
-0.0326945
-0.073112
-0.11154
-0.150915
-0.190632
-0.232204
-0.275629
-0.321208
-0.371873
-0.425548
-0.483478
-0.546241
-0.612833
-0.685412
-0.766233
-0.86196
-0.971193
-1.1022
-1.28265
-1.55376
-1.99238
-2.02882
-0.0794681
1.45088
1.04517
0.61835
0.378647
0.228414
0.126266
0.0540649
0.00536066
-0.0267357
-0.0475021
-0.0573903
-0.0608637
-0.0610351
-0.0556301
-0.0465954
-0.0366989
-0.0252408
-0.0130547
0.000445952
0.0185364
0.0374906
0.057054
0.0823749
0.111968
0.146994
0.193321
0.249988
0.33828
0.409144
0.423295
0.337938
0.233423
0.16738
0.107255
0.0558548
0.0113326
-0.029911
-0.0694409
-0.108164
-0.147046
-0.185568
-0.226578
-0.269649
-0.314558
-0.364425
-0.418283
-0.475463
-0.536318
-0.602453
-0.675106
-0.754078
-0.845872
-0.953001
-1.08425
-1.26176
-1.52279
-1.94222
-1.95748
-0.017599
1.45112
1.02933
0.602984
0.364529
0.217077
0.115929
0.04462
-0.00320924
-0.0340533
-0.0542905
-0.0634954
-0.0662677
-0.066726
-0.0610775
-0.0510521
-0.0404349
-0.0293062
-0.0167524
-0.0018914
0.0156098
0.0339877
0.0550037
0.0805567
0.110345
0.147009
0.193511
0.249541
0.338066
0.408822
0.420998
0.337061
0.232309
0.167032
0.10883
0.0577305
0.0131808
-0.0272774
-0.0658147
-0.104304
-0.142184
-0.179235
-0.220002
-0.263261
-0.307782
-0.356613
-0.409437
-0.465267
-0.524801
-0.590465
-0.663263
-0.741003
-0.827881
-0.93295
-1.06593
-1.23912
-1.48877
-1.88394
-1.88112
0.0321901
1.44991
1.0103
0.585663
0.350295
0.204069
0.103477
0.034645
-0.0123693
-0.0429852
-0.06185
-0.0699387
-0.0727244
-0.0727856
-0.0661169
-0.0559668
-0.045372
-0.0337573
-0.0200219
-0.00491442
0.0114085
0.0302707
0.0529553
0.0787108
0.107917
0.145445
0.193765
0.250252
0.338934
0.409587
0.427142
0.344859
0.236058
0.16706
0.109569
0.0594247
0.0161308
-0.0236709
-0.061745
-0.0998213
-0.13655
-0.172393
-0.213249
-0.256196
-0.299467
-0.347056
-0.398701
-0.453633
-0.512777
-0.576866
-0.648093
-0.726123
-0.810707
-0.911498
-1.04122
-1.20943
-1.45075
-1.82552
-1.79647
0.0796674
1.4492
0.987754
0.563744
0.334619
0.189824
0.0900969
0.0230949
-0.022651
-0.0528256
-0.0702719
-0.077529
-0.0800166
-0.0791307
-0.0716348
-0.0612091
-0.0507041
-0.0385143
-0.0240472
-0.00886845
0.00760764
0.0266109
0.0495338
0.0763532
0.105332
0.141447
0.19031
0.248872
0.337699
0.406658
0.443352
0.361023
0.243178
0.167454
0.1115
0.0625019
0.0202969
-0.019402
-0.0577006
-0.094526
-0.130004
-0.16562
-0.205593
-0.247426
-0.289665
-0.33554
-0.386026
-0.440523
-0.49948
-0.561998
-0.630148
-0.707023
-0.791393
-0.88905
-1.01219
-1.1752
-1.40888
-1.76426
-1.70649
0.158206
1.44664
0.961617
0.541797
0.315824
0.173748
0.0753697
0.010201
-0.0340408
-0.0631454
-0.0794765
-0.0864786
-0.0880993
-0.0857791
-0.0778554
-0.0672502
-0.0565343
-0.0438306
-0.0288114
-0.0131735
0.00364034
0.0225244
0.0451843
0.0729034
0.102486
0.137191
0.184076
0.243652
0.332961
0.398889
0.44802
0.366066
0.244584
0.168197
0.114017
0.0653253
0.0243145
-0.0151227
-0.0532159
-0.0885056
-0.122867
-0.158404
-0.196283
-0.236272
-0.278581
-0.322664
-0.370947
-0.424692
-0.483331
-0.544971
-0.610947
-0.684351
-0.766702
-0.863288
-0.982029
-1.1378
-1.36269
-1.69741
-1.59089
0.234913
1.44052
0.930759
0.517259
0.294716
0.153661
0.058852
-0.00375214
-0.0469768
-0.0743265
-0.0893088
-0.0962769
-0.0968384
-0.0926592
-0.0843948
-0.074294
-0.0633064
-0.0497689
-0.0339659
-0.018059
-0.00169668
0.0175966
0.0406221
0.06836
0.0989386
0.134067
0.180524
0.240607
0.330366
0.395578
0.443714
0.361976
0.242616
0.169107
0.115363
0.0675822
0.0273305
-0.0114941
-0.0477864
-0.0813726
-0.114637
-0.150036
-0.185764
-0.222651
-0.264432
-0.307808
-0.353734
-0.406049
-0.46334
-0.523723
-0.588949
-0.659621
-0.737458
-0.832142
-0.946953
-1.09361
-1.30858
-1.62025
-1.4712
0.317346
1.42951
0.895053
0.487553
0.268659
0.130155
0.0394915
-0.0195514
-0.0610108
-0.086365
-0.100269
-0.106733
-0.105716
-0.100336
-0.0920991
-0.0817227
-0.0698862
-0.0560567
-0.0404578
-0.0246716
-0.00835539
0.0118638
0.0355229
0.0628538
0.0941879
0.130793
0.178635
0.238122
0.328803
0.397916
0.439625
0.358868
0.242287
0.168629
0.114752
0.0691735
0.0301147
-0.00738441
-0.0419006
-0.0736919
-0.104989
-0.13893
-0.173427
-0.207358
-0.246621
-0.289653
-0.334008
-0.384165
-0.438915
-0.496513
-0.561418
-0.630195
-0.704091
-0.795596
-0.904563
-1.04282
-1.24458
-1.52853
-1.34318
0.417917
1.41924
0.85682
0.452179
0.238317
0.103421
0.0179365
-0.0383842
-0.0769987
-0.0997222
-0.112312
-0.117414
-0.114725
-0.108642
-0.100287
-0.0892074
-0.0767451
-0.0630127
-0.0485889
-0.0335851
-0.0164098
0.00494444
0.0287881
0.0558177
0.0878004
0.125989
0.174404
0.231725
0.32467
0.399989
0.432661
0.354527
0.241268
0.165829
0.111977
0.0693854
0.0335627
-0.00170948
-0.0348336
-0.0648168
-0.0940033
-0.125002
-0.157663
-0.189538
-0.226058
-0.267502
-0.309144
-0.356505
-0.408569
-0.462918
-0.52614
-0.592488
-0.66273
-0.750872
-0.854773
-0.983556
-1.16465
-1.41915
-1.19232
0.516193
1.39905
0.805463
0.410286
0.201872
0.0731739
-0.00745109
-0.06045
-0.0951511
-0.114396
-0.124514
-0.127717
-0.12407
-0.117135
-0.107834
-0.0965628
-0.0844978
-0.0713529
-0.0583485
-0.0442214
-0.0262485
-0.00514207
0.0182935
0.045776
0.0781021
0.117651
0.167334
0.22525
0.320798
0.398934
0.432525
0.348002
0.238103
0.162416
0.110236
0.0709161
0.0378585
0.00507072
-0.0247727
-0.0521653
-0.0801262
-0.108816
-0.138388
-0.16802
-0.201962
-0.239895
-0.277729
-0.321036
-0.369389
-0.420395
-0.480074
-0.542564
-0.608634
-0.693051
-0.793267
-0.911315
-1.07142
-1.28943
-1.00228
0.639449
1.36836
0.739987
0.356168
0.156648
0.0350272
-0.0393868
-0.0856445
-0.114472
-0.129576
-0.136109
-0.136708
-0.132643
-0.125002
-0.114749
-0.103636
-0.0926212
-0.0813397
-0.0701952
-0.0568789
-0.0395709
-0.0212418
0.000445921
0.0293526
0.0630336
0.105201
0.159725
0.223759
0.325258
0.410118
0.299597
0.244713
0.172403
0.12067
0.0813546
0.0481896
0.0191435
-0.00792704
-0.0315731
-0.0541125
-0.0775247
-0.101486
-0.125908
-0.150645
-0.178605
-0.209631
-0.241793
-0.277694
-0.317522
-0.360819
-0.410951
-0.463313
-0.520532
-0.593992
-0.68308
-0.78733
-0.919583
-1.04943
-0.679715
0.714819
1.23767
0.64506
0.276636
0.0890965
-0.0174683
-0.077724
-0.112596
-0.133642
-0.144303
-0.147729
-0.146498
-0.142699
-0.135613
-0.126619
-0.117627
-0.109096
-0.101385
-0.0940246
-0.0851836
-0.0744834
-0.0652983
-0.0542996
-0.0372275
-0.0176597
0.0110078
0.0576397
0.127775
0.246264
0.340973
0.0599741
0.0515952
0.040939
0.0381918
0.0230823
0.000322152
-0.0218262
-0.0401162
-0.0552699
-0.0707862
-0.0863217
-0.102741
-0.120434
-0.13764
-0.156845
-0.179116
-0.203424
-0.229384
-0.257173
-0.288862
-0.326144
-0.361799
-0.401688
-0.45694
-0.525579
-0.611017
-0.733161
-0.948993
-0.622739
1.00239
1.39389
0.439231
0.0894752
-0.038151
-0.1013
-0.130998
-0.146635
-0.156801
-0.161576
-0.161789
-0.158975
-0.155894
-0.149646
-0.142811
-0.137276
-0.132164
-0.129034
-0.127298
-0.125829
-0.124874
-0.130005
-0.137694
-0.143303
-0.154731
-0.15974
-0.140994
-0.0860127
0.0664579
0.194052
-33.3438
-21.046
-5.57929
-3.09476
-1.71777
-1.03947
-0.696097
-0.496187
-0.376502
-0.305756
-0.261237
-0.235409
-0.221993
-0.213385
-0.213774
-0.221808
-0.232114
-0.24683
-0.266628
-0.290962
-0.315403
-0.340571
-0.369722
-0.404443
-0.446648
-0.495627
-0.566416
-0.719094
-0.32476
0.329284
-33.2132
-19.7196
-6.58398
-3.43177
-2.08579
-1.38755
-0.992863
-0.752316
-0.598171
-0.496328
-0.42524
-0.375493
-0.339934
-0.314387
-0.299979
-0.293035
-0.290944
-0.294443
-0.302031
-0.312556
-0.3249
-0.339186
-0.356213
-0.378027
-0.405489
-0.437313
-0.480801
-0.533641
-0.225463
0.396996
-32.3296
-18.4955
-6.02537
-3.48518
-2.30796
-1.63743
-1.21787
-0.943425
-0.760821
-0.634302
-0.542337
-0.47467
-0.424778
-0.387948
-0.363674
-0.347015
-0.336138
-0.331298
-0.330005
-0.331047
-0.334701
-0.340561
-0.348278