# vtk DataFile Version 2.0
scalar
ASCII
DATASET UNSTRUCTURED_GRID
POINTS 2010 float
1.0 0.0 0.0
0.9971 0.0 0.0004
0.9883 0.0 0.0014
0.9738 0.0 0.0031
0.9538 0.0 0.0054
0.9284 0.0 0.0083
0.898 0.0 0.0116
0.863 0.0 0.0152
0.8237 0.0 0.0192
0.7806 0.0 0.0232
0.7342 0.0 0.0274
0.6851 0.0 0.0315
0.6338 0.0 0.0355
0.5809 0.0 0.0392
0.5271 0.0 0.0425
0.4729 0.0 0.0454
0.4191 0.0 0.0477
0.3662 0.0 0.0492
0.3149 0.0 0.05
0.2658 0.0 0.0498
0.2194 0.0 0.0486
0.1763 0.0 0.0465
0.137 0.0 0.0434
0.102 0.0 0.0393
0.0716 0.0 0.0344
0.0462 0.0 0.0286
0.0262 0.0 0.0222
0.0117 0.0 0.0153
0.0029 0.0 0.0079
0.0 0.0 0.0
0.0029 0.0 -0.0079
0.0117 0.0 -0.0153
0.0262 0.0 -0.0222
0.0462 0.0 -0.0286
0.0716 0.0 -0.0344
0.102 0.0 -0.0393
0.137 0.0 -0.0434
0.1763 0.0 -0.0465
0.2194 0.0 -0.0486
0.2658 0.0 -0.0498
0.3149 0.0 -0.05
0.3662 0.0 -0.0492
0.4191 0.0 -0.0477
0.4729 0.0 -0.0454
0.5271 0.0 -0.0425
0.5809 0.0 -0.0392
0.6338 0.0 -0.0355
0.6851 0.0 -0.0315
0.7342 0.0 -0.0274
0.7806 0.0 -0.0232
0.8237 0.0 -0.0192
0.863 0.0 -0.0152
0.898 0.0 -0.0116
0.9284 0.0 -0.0083
0.9538 0.0 -0.0054
0.9738 0.0 -0.0031
0.9883 0.0 -0.0014
0.9971 0.0 -0.0004
1.0 0.0 0.0
1.0 0.1034 0.0
0.9971 0.1034 0.0003
0.9883 0.1034 0.0014
0.9738 0.1034 0.003
0.9538 0.1034 0.0053
0.9284 0.1034 0.008
0.898 0.1034 0.0112
0.8629 0.1034 0.0148
0.8236 0.1034 0.0186
0.7805 0.1034 0.0225
0.7341 0.1034 0.0265
0.685 0.1034 0.0304
0.6336 0.1034 0.0342
0.5808 0.1034 0.0378
0.5269 0.1034 0.041
0.4728 0.1034 0.0436
0.419 0.1034 0.0457
0.3661 0.1034 0.0471
0.3148 0.1034 0.0477
0.2656 0.1034 0.0473
0.2192 0.1034 0.046
0.1762 0.1034 0.0437
0.1369 0.1034 0.0405
0.1018 0.1034 0.0363
0.0715 0.1034 0.0312
0.0461 0.1034 0.0254
0.0261 0.1034 0.019
0.0116 0.1034 0.012
0.0029 0.1034 0.0045
0.0 0.1034 -0.0034
0.003 0.1034 -0.0112
0.0117 0.1034 -0.0186
0.0263 0.1034 -0.0255
0.0463 0.1034 -0.0318
0.0717 0.1034 -0.0375
0.1021 0.1034 -0.0423
0.1372 0.1034 -0.0463
0.1765 0.1034 -0.0493
0.2196 0.1034 -0.0513
0.266 0.1034 -0.0522
0.3151 0.1034 -0.0523
0.3664 0.1034 -0.0514
0.4193 0.1034 -0.0496
0.4731 0.1034 -0.0472
0.5272 0.1034 -0.0441
0.581 0.1034 -0.0406
0.6339 0.1034 -0.0367
0.6852 0.1034 -0.0326
0.7343 0.1034 -0.0283
0.7807 0.1034 -0.024
0.8238 0.1034 -0.0198
0.863 0.1034 -0.0157
0.8981 0.1034 -0.0119
0.9285 0.1034 -0.0085
0.9538 0.1034 -0.0056
0.9738 0.1034 -0.0032
0.9883 0.1034 -0.0014
0.9971 0.1034 -0.0004
1.0 0.1034 0.0
1.0 0.2069 0.0
0.9971 0.2069 0.0003
0.9883 0.2069 0.0014
0.9738 0.2069 0.003
0.9538 0.2069 0.0052
0.9284 0.2069 0.008
0.898 0.2069 0.0111
0.8629 0.2069 0.0146
0.8236 0.2069 0.0184
0.7805 0.2069 0.0223
0.7341 0.2069 0.0262
0.6849 0.2069 0.0301
0.6336 0.2069 0.0339
0.5807 0.2069 0.0374
0.5269 0.2069 0.0405
0.4727 0.2069 0.0431
0.4189 0.2069 0.0452
0.366 0.2069 0.0465
0.3147 0.2069 0.047
0.2656 0.2069 0.0466
0.2192 0.2069 0.0453
0.1761 0.2069 0.0429
0.1368 0.2069 0.0396
0.1018 0.2069 0.0354
0.0714 0.2069 0.0304
0.0461 0.2069 0.0245
0.0261 0.2069 0.0181
0.0116 0.2069 0.011
0.0029 0.2069 0.0036
0.0 0.2069 -0.0043
0.003 0.2069 -0.0121
0.0118 0.2069 -0.0196
0.0263 0.2069 -0.0264
0.0463 0.2069 -0.0328
0.0717 0.2069 -0.0384
0.1021 0.2069 -0.0432
0.1372 0.2069 -0.0471
0.1765 0.2069 -0.05
0.2196 0.2069 -0.052
0.266 0.2069 -0.0529
0.3152 0.2069 -0.0529
0.3665 0.2069 -0.052
0.4193 0.2069 -0.0502
0.4731 0.2069 -0.0477
0.5273 0.2069 -0.0446
0.5811 0.2069 -0.041
0.6339 0.2069 -0.037
0.6852 0.2069 -0.0329
0.7343 0.2069 -0.0285
0.7807 0.2069 -0.0242
0.8238 0.2069 -0.0199
0.8631 0.2069 -0.0158
0.8981 0.2069 -0.012
0.9285 0.2069 -0.0086
0.9538 0.2069 -0.0056
0.9738 0.2069 -0.0032
0.9883 0.2069 -0.0015
0.9971 0.2069 -0.0004
1.0 0.2069 0.0
1.0 0.3103 0.0
0.9971 0.3103 0.0003
0.9883 0.3103 0.0013
0.9738 0.3103 0.003
0.9538 0.3103 0.0052
0.9284 0.3103 0.0079
0.898 0.3103 0.0111
0.8629 0.3103 0.0146
0.8236 0.3103 0.0183
0.7805 0.3103 0.0222
0.7341 0.3103 0.0261
0.6849 0.3103 0.03
0.6336 0.3103 0.0337
0.5807 0.3103 0.0371
0.5269 0.3103 0.0402
0.4727 0.3103 0.0428
0.4189 0.3103 0.0448
0.366 0.3103 0.0461
0.3147 0.3103 0.0466
0.2656 0.3103 0.0462
0.2192 0.3103 0.0448
0.1761 0.3103 0.0425
0.1368 0.3103 0.0391
0.1018 0.3103 0.0349
0.0714 0.3103 0.0298
0.0461 0.3103 0.024
0.0261 0.3103 0.0175
0.0116 0.3103 0.0105
0.0029 0.3103 0.003
0.0 0.3103 -0.0049
0.003 0.3103 -0.0127
0.0118 0.3103 -0.0201
0.0263 0.3103 -0.027
0.0464 0.3103 -0.0333
0.0718 0.3103 -0.0389
0.1022 0.3103 -0.0437
0.1372 0.3103 -0.0476
0.1765 0.3103 -0.0505
0.2197 0.3103 -0.0524
0.266 0.3103 -0.0534
0.3152 0.3103 -0.0533
0.3665 0.3103 -0.0523
0.4193 0.3103 -0.0505
0.4732 0.3103 -0.048
0.5273 0.3103 -0.0449
0.5811 0.3103 -0.0412
0.6339 0.3103 -0.0373
0.6852 0.3103 -0.033
0.7343 0.3103 -0.0287
0.7807 0.3103 -0.0243
0.8238 0.3103 -0.02
0.8631 0.3103 -0.0159
0.8981 0.3103 -0.0121
0.9285 0.3103 -0.0086
0.9538 0.3103 -0.0057
0.9738 0.3103 -0.0032
0.9883 0.3103 -0.0015
0.9971 0.3103 -0.0004
1.0 0.3103 0.0
1.0 0.4138 0.0
0.9971 0.4138 0.0003
0.9883 0.4138 0.0013
0.9738 0.4138 0.003
0.9538 0.4138 0.0052
0.9284 0.4138 0.0079
0.898 0.4138 0.011
0.8629 0.4138 0.0145
0.8236 0.4138 0.0182
0.7805 0.4138 0.0221
0.7341 0.4138 0.026
0.6849 0.4138 0.0298
0.6336 0.4138 0.0335
0.5807 0.4138 0.037
0.5269 0.4138 0.04
0.4727 0.4138 0.0426
0.4189 0.4138 0.0446
0.366 0.4138 0.0459
0.3147 0.4138 0.0463
0.2655 0.4138 0.0459
0.2192 0.4138 0.0445
0.1761 0.4138 0.0421
0.1368 0.4138 0.0388
0.1018 0.4138 0.0346
0.0714 0.4138 0.0295
0.0461 0.4138 0.0236
0.0261 0.4138 0.0171
0.0116 0.4138 0.0101
0.0029 0.4138 0.0026
0.0 0.4138 -0.0053
0.003 0.4138 -0.0131
0.0118 0.4138 -0.0205
0.0263 0.4138 -0.0274
0.0464 0.4138 -0.0337
0.0718 0.4138 -0.0393
0.1022 0.4138 -0.044
0.1372 0.4138 -0.0479
0.1766 0.4138 -0.0508
0.2197 0.4138 -0.0528
0.2661 0.4138 -0.0537
0.3152 0.4138 -0.0536
0.3665 0.4138 -0.0526
0.4194 0.4138 -0.0508
0.4732 0.4138 -0.0482
0.5273 0.4138 -0.045
0.5811 0.4138 -0.0414
0.634 0.4138 -0.0374
0.6852 0.4138 -0.0332
0.7344 0.4138 -0.0288
0.7807 0.4138 -0.0244
0.8238 0.4138 -0.0201
0.8631 0.4138 -0.016
0.8981 0.4138 -0.0121
0.9285 0.4138 -0.0087
0.9538 0.4138 -0.0057
0.9738 0.4138 -0.0033
0.9883 0.4138 -0.0015
0.9971 0.4138 -0.0004
1.0 0.4138 0.0
1.0 0.5172 0.0
0.9971 0.5172 0.0003
0.9883 0.5172 0.0013
0.9738 0.5172 0.003
0.9538 0.5172 0.0052
0.9284 0.5172 0.0079
0.898 0.5172 0.011
0.8629 0.5172 0.0145
0.8236 0.5172 0.0182
0.7805 0.5172 0.022
0.7341 0.5172 0.0259
0.6849 0.5172 0.0297
0.6336 0.5172 0.0334
0.5807 0.5172 0.0369
0.5268 0.5172 0.0399
0.4727 0.5172 0.0425
0.4189 0.5172 0.0445
0.366 0.5172 0.0457
0.3147 0.5172 0.0461
0.2655 0.5172 0.0457
0.2191 0.5172 0.0443
0.1761 0.5172 0.0419
0.1368 0.5172 0.0386
0.1017 0.5172 0.0343
0.0714 0.5172 0.0292
0.0461 0.5172 0.0233
0.0261 0.5172 0.0168
0.0116 0.5172 0.0098
0.0029 0.5172 0.0023
0.0 0.5172 -0.0056
0.003 0.5172 -0.0134
0.0118 0.5172 -0.0208
0.0263 0.5172 -0.0277
0.0464 0.5172 -0.0339
0.0718 0.5172 -0.0395
0.1022 0.5172 -0.0443
0.1373 0.5172 -0.0482
0.1766 0.5172 -0.0511
0.2197 0.5172 -0.053
0.2661 0.5172 -0.0539
0.3152 0.5172 -0.0538
0.3665 0.5172 -0.0528
0.4194 0.5172 -0.0509
0.4732 0.5172 -0.0484
0.5273 0.5172 -0.0452
0.5811 0.5172 -0.0415
0.634 0.5172 -0.0375
0.6852 0.5172 -0.0333
0.7344 0.5172 -0.0289
0.7807 0.5172 -0.0245
0.8238 0.5172 -0.0201
0.8631 0.5172 -0.016
0.8981 0.5172 -0.0122
0.9285 0.5172 -0.0087
0.9538 0.5172 -0.0057
0.9738 0.5172 -0.0033
0.9883 0.5172 -0.0015
0.9971 0.5172 -0.0004
1.0 0.5172 0.0
1.0 0.6207 0.0
0.9971 0.6207 0.0003
0.9883 0.6207 0.0013
0.9738 0.6207 0.003
0.9538 0.6207 0.0052
0.9284 0.6207 0.0079
0.898 0.6207 0.011
0.8629 0.6207 0.0144
0.8236 0.6207 0.0181
0.7805 0.6207 0.022
0.7341 0.6207 0.0259
0.6849 0.6207 0.0297
0.6336 0.6207 0.0334
0.5807 0.6207 0.0368
0.5268 0.6207 0.0398
0.4727 0.6207 0.0424
0.4188 0.6207 0.0443
0.366 0.6207 0.0456
0.3147 0.6207 0.046
0.2655 0.6207 0.0455
0.2191 0.6207 0.0441
0.1761 0.6207 0.0417
0.1368 0.6207 0.0384
0.1017 0.6207 0.0341
0.0714 0.6207 0.029
0.0461 0.6207 0.0231
0.0261 0.6207 0.0166
0.0116 0.6207 0.0096
0.0029 0.6207 0.0021
0.0 0.6207 -0.0058
0.003 0.6207 -0.0136
0.0118 0.6207 -0.021
0.0263 0.6207 -0.0279
0.0464 0.6207 -0.0341
0.0718 0.6207 -0.0397
0.1022 0.6207 -0.0445
0.1373 0.6207 -0.0483
0.1766 0.6207 -0.0512
0.2197 0.6207 -0.0531
0.2661 0.6207 -0.054
0.3152 0.6207 -0.0539
0.3665 0.6207 -0.0529
0.4194 0.6207 -0.051
0.4732 0.6207 -0.0485
0.5273 0.6207 -0.0453
0.5811 0.6207 -0.0416
0.634 0.6207 -0.0376
0.6853 0.6207 -0.0333
0.7344 0.6207 -0.0289
0.7807 0.6207 -0.0245
0.8238 0.6207 -0.0202
0.8631 0.6207 -0.016
0.8981 0.6207 -0.0122
0.9285 0.6207 -0.0087
0.9538 0.6207 -0.0057
0.9738 0.6207 -0.0033
0.9883 0.6207 -0.0015
0.9971 0.6207 -0.0004
1.0 0.6207 0.0
1.0 0.7241 0.0
0.9971 0.7241 0.0003
0.9883 0.7241 0.0013
0.9738 0.7241 0.003
0.9538 0.7241 0.0052
0.9284 0.7241 0.0079
0.898 0.7241 0.011
0.8629 0.7241 0.0144
0.8236 0.7241 0.0181
0.7805 0.7241 0.0219
0.734 0.7241 0.0258
0.6849 0.7241 0.0296
0.6336 0.7241 0.0333
0.5807 0.7241 0.0367
0.5268 0.7241 0.0397
0.4727 0.7241 0.0423
0.4188 0.7241 0.0442
0.366 0.7241 0.0455
0.3146 0.7241 0.0459
0.2655 0.7241 0.0454
0.2191 0.7241 0.044
0.176 0.7241 0.0416
0.1368 0.7241 0.0382
0.1017 0.7241 0.034
0.0714 0.7241 0.0288
0.0461 0.7241 0.023
0.0261 0.7241 0.0165
0.0116 0.7241 0.0094
0.0029 0.7241 0.0019
0.0 0.7241 -0.0059
0.003 0.7241 -0.0138
0.0118 0.7241 -0.0212
0.0263 0.7241 -0.028
0.0464 0.7241 -0.0343
0.0718 0.7241 -0.0399
0.1022 0.7241 -0.0446
0.1373 0.7241 -0.0485
0.1766 0.7241 -0.0514
0.2197 0.7241 -0.0533
0.2661 0.7241 -0.0541
0.3152 0.7241 -0.054
0.3665 0.7241 -0.053
0.4194 0.7241 -0.0511
0.4732 0.7241 -0.0485
0.5273 0.7241 -0.0454
[...]
POINT_DATA 2010
SCALARS cp1 float
LOOKUP_TABLE default
0.429745
0.339626
0.219219
0.152806
0.0932738
0.0384428
-0.0090933
-0.0579683
-0.10559
-0.148625
-0.19371
-0.240548
-0.289665
-0.343743
-0.398488
-0.456765
-0.522264
-0.594707
-0.674828
-0.75856
-0.849904
-0.95933
-1.08919
-1.24274
-1.43462
-1.69773
-2.13184
-3.0667
-4.16533
-1.75367
1.49608
1.47046
0.92511
0.644401
0.457766
0.328659
0.233857
0.163707
0.115667
0.0809082
0.0547813
0.039777
0.0321429
0.0279604
0.0282276
0.0297394
0.0331479
0.0392302
0.0489985
0.059409
0.0701223
0.0882317
0.108643
0.130891
0.161345
0.202982
0.251495
0.339693
0.410563
0.44246
0.362284
0.242686
0.162205
0.0990078
0.0425441
-0.00698581
-0.0561131
-0.104187
-0.148985
-0.193763
-0.240461
-0.290737
-0.344857
-0.400444
-0.459292
-0.525741
-0.599054
-0.678692
-0.765312
-0.861658
-0.972739
-1.10556
-1.26964
-1.4786
-1.77372
-2.23927
-2.99274
-3.45774
-1.40333
1.13639
1.29484
0.929482
0.660584
0.469802
0.33646
0.23955
0.168912
0.118986
0.0837003
0.0577685
0.041437
0.0331403
0.028681
0.028117
0.0304524
0.034372
0.0401592
0.0492931
0.0597216
0.071988
0.0897345
0.110167
0.133585
0.165169
0.207758
0.261306
0.345485
0.409131
0.446439
0.363262
0.240176
0.15897
0.0974185
0.0415533
-0.00820473
-0.0565518
-0.104256
-0.149646
-0.194092
-0.240821
-0.291252
-0.344767
-0.39999
-0.459236
-0.526117
-0.599147
-0.67792
-0.765158
-0.862812
-0.97233
-1.10104
-1.26298
-1.47012
-1.75279
-2.19708
-2.9775
-3.64618
-1.52574
1.25148
1.34247
0.919267
0.645771
0.458727
0.328566
0.234238
0.166033
0.116592
0.081531
0.0566742
0.0407089
0.0324357
0.0277614
0.0269834
0.0301249
0.0343615
0.0399982
0.0489117
0.0592704
0.0719943
0.089149
0.108839
0.13201
0.163202
0.204608
0.253398
0.339022
0.410694
0.441323
0.363285
0.243603
0.158975
0.0964424
0.0421506
-0.00840571
-0.0565881
-0.103223
-0.149329
-0.194655
-0.241253
-0.291291
-0.34391
-0.398864
-0.459021
-0.526146
-0.598368
-0.67651
-0.764163
-0.861814
-0.970271
-1.09739
-1.25858
-1.46661
-1.74597
-2.18732
-2.96834
-3.63009
-1.46522
1.26348
1.33795
0.916141
0.642231
0.456636
0.326547
0.232761
0.165149
0.114961
0.0790405
0.0555912
0.0405005
0.0315347
0.0269076
0.0265301
0.0296462
0.0337225
0.039728
0.0485272
0.0592327
0.0723423
0.0883031
0.108034
0.131827
0.162489
0.203517
0.252688
0.339977
0.413177
0.439282
0.363723
0.246065
0.158689
0.0948025
0.0422687
-0.00777546
-0.0564238
-0.102847
-0.149009
-0.194715
-0.240172
-0.290112
-0.34367
-0.398124
-0.458623
-0.526188
-0.597361
-0.674504
-0.762638
-0.859373
-0.967116
-1.0964
-1.2576
-1.46295
-1.73775
-2.17601
-2.95782
-3.61024
-1.44268
1.26654
1.33559
0.912619
0.639698
0.455269
0.325004
0.231386
0.163215
0.112908
0.0771217
0.0542843
0.0394609
0.030372
0.0260076
0.026283
0.0294318
0.0331556
0.0389219
0.047589
0.0588766
0.0724636
0.0879085
0.107387
0.13166
0.161864
0.201456
0.25286
0.342534
0.41403
0.439036
0.363674
0.24621
0.158347
0.0940986
0.0415198
-0.00777006
-0.055563
-0.102065
-0.148388
-0.194087
-0.239112
-0.289262
-0.343125
-0.397364
-0.458095
-0.525355
-0.596027
-0.67259
-0.760045
-0.856843
-0.964478
-1.09497
-1.25548
-1.45698
-1.72955
-2.1661
-2.94534
-3.59017
-1.42203
1.27089
1.3329
0.908883
0.637825
0.453754
0.322315
0.228871
0.161075
0.111164
0.0761383
0.0528333
0.0380002
0.0296239
0.0248258
0.0248981
0.0287458
0.03273
0.0382488
0.0468289
0.0582407
0.0723222
0.0879534
0.106357
0.1313
0.162607
0.200519
0.252539
0.343801
0.414243
0.438981
0.363703
0.246283
0.158339
0.0938233
0.0405262
-0.00825598
-0.0542334
-0.100583
-0.147389
-0.193256
-0.239006
-0.288964
-0.341615
-0.396068
-0.456855
-0.523011
-0.594642
-0.671718
-0.756979
-0.853832
-0.962046
-1.09143
-1.25015
-1.4495
-1.72466
-2.16077
-2.92853
-3.56774
-1.40625
1.27209
1.3298
0.905653
0.635074
0.450669
0.319477
0.226587
0.158624
0.109197
0.0751495
0.0514591
0.0363605
0.0288427
0.0239351
0.0230081
0.0271319
0.0320199
0.037693
0.046474
0.0580473
0.0714893
0.0869738
0.105866
0.131551
0.163201
0.200489
0.252545
0.343922
0.413906
0.439144
0.363895
0.246363
0.158304
0.093987
0.0403382
-0.00851749
-0.0537212
-0.0999448
-0.146234
-0.19211
-0.238619
-0.28758
-0.339343
-0.39469
-0.455257
-0.520809
-0.592832
-0.669991
-0.754102
-0.851334
-0.95955
-1.08588
-1.24288
-1.44299
-1.72231
-2.15373
-2.90792
-3.53827
-1.39978
1.27824
1.3263
0.902451
0.631247
0.446886
0.317508
0.224365
0.155273
0.106571
0.0737782
0.0501463
0.0343799
0.0272022
0.0231792
0.0218033
0.0255593
0.031095
0.0367945
0.0455197
0.0577551
0.0708474
0.085418
0.105637
0.132321
0.163231
0.200341
0.252539
0.343949
0.413938
0.439069
0.363831
0.24567
0.158026
0.0958597
0.0422294
-0.00843518
-0.0541055
-0.0999773
-0.145134
-0.190477
-0.237726
-0.285617
-0.33685
-0.393133
-0.453736
-0.519198
-0.589805
-0.666433
-0.751905
-0.848669
-0.955617
-1.0803
-1.23615
-1.43752
-1.71637
-2.14087
-2.88816
-3.51373
-1.35941
1.28189
1.32307
0.897566
0.626935
0.443608
0.315104
0.221295
0.152038
0.10441
0.0716175
0.0482186
0.0327126
0.0249202
0.0214283
0.0208507
0.0242405
0.0297742
0.0361431
0.0445871
0.0564411
0.0702185
0.0847617
0.1053
0.132523
0.163052
0.200116
0.252409
0.343865
0.413812
0.438611
0.363322
0.244068
0.157297
0.0986079
0.0456519
-0.00727689
-0.0543474
-0.100213
-0.144395
-0.188197
-0.235736
-0.284453
-0.335276
-0.390975
-0.451378
-0.516803
-0.586195
-0.66283
-0.74957
-0.844656
-0.949626
-1.07536
-1.23185
-1.43154
-1.70624
-2.12669
-2.86881
-3.48328
-1.33086
1.2887
1.31933
0.893025
0.622473
0.439538
0.311161
0.217549
0.149697
0.102483
0.0684916
0.0457096
0.0312346
0.0226556
0.0192126
0.0194922
0.0226946
0.0278863
0.0351505
0.044342
0.0552747
0.0686481
0.0843371
0.105328
0.132236
0.162762
0.199826
0.252141
0.343646
0.413504
0.43856
0.363092
0.243056
0.156727
0.0996265
0.0478286
-0.00520423
-0.0536483
-0.0996252
-0.143609
-0.186428
-0.233117
-0.283037
-0.333679
-0.388676
-0.448522
-0.513519
-0.583043
-0.659164
-0.745224
-0.839945
-0.944493
-1.07066
-1.22607
-1.4231
-1.69575
-2.11263
-2.8454
-3.4496
-1.32081
1.29554
1.31457
0.888887
0.617606
0.434719
0.306473
0.213747
0.14731
0.0993772
0.0650479
0.0432364
0.028973
0.0202084
0.0174356
0.0182844
0.0212309
0.0257426
0.0330614
0.0435631
0.0546132
0.0667628
0.0835155
0.105598
0.131922
0.16246
0.199491
0.251723
0.343402
0.413425
0.439029
0.363228
0.243129
0.157037
0.0995358
0.0483289
-0.0039682
-0.0527389
-0.0973104
-0.141342
-0.185703
-0.231635
-0.280397
-0.330588
-0.386184
-0.446119
-0.509889
-0.579322
-0.655046
-0.739886
-0.834927
-0.939994
-1.06528
-1.2178
-1.41275
-1.68434
-2.09636
-2.82224
-3.42067
-1.28051
1.29728
1.31007
0.882798
0.611658
0.430129
0.301836
0.209876
0.144094
0.0955157
0.0617499
0.0405492
0.0260649
0.0175645
0.0154627
0.0164642
0.0193798
0.0242097
0.031212
0.0416293
0.0535562
0.0656411
0.0826596
0.105315
0.13138
0.162027
0.199195
0.25151
0.343362
0.41358
0.438811
0.362344
0.243615
0.159391
0.100425
0.0484362
-0.0034338
-0.0522697
-0.0948754
-0.138066
-0.184615
-0.230559
-0.277291
-0.327419
-0.38303
-0.442477
-0.505521
-0.575271
-0.651487
-0.73531
-0.828836
-0.933251
-1.05854
-1.20887
-1.40201
-1.67367
-2.08018
-2.79586
-3.37208
-1.23416
1.30871
1.3048
0.875746
0.605436
0.425041
0.296933
0.205479
0.140038
0.0915799
0.0582437
0.0371006
0.0230745
0.015299
0.0129595
0.0133281
0.0166331
0.0230623
0.0303465
0.0395376
0.0515069
0.0647005
0.0820461
0.104484
0.130629
0.161487
0.198897
0.251275
0.343075
0.413348
0.437809
0.360495
0.244293
0.16338
0.102101
0.0484056
-0.00253375
-0.0511992
-0.0930844
-0.135337
-0.182508
-0.228427
-0.274308
-0.324768
-0.379647
-0.437708
-0.5004
-0.570794
-0.647294
-0.730258
-0.822034
-0.925427
-1.05056
-1.20012
-1.3901
-1.65837
-2.06341
-2.76987
-3.31841
-1.2048
1.31792
1.29774
0.868871
0.598725
0.419069
0.291364
0.200329
0.135114
0.0873575
0.0545659
0.033304
0.0197653
0.0124591
0.0100591
0.0103706
0.0139455
0.0213152
0.0292927
0.0376626
0.0485846
0.0632294
0.081779
0.103578
0.129643
0.160891
0.19852
0.250727
0.342467
0.412793
0.437621
0.359602
0.244789
0.165818
0.103205
0.0484037
-0.00120454
-0.0486868
-0.0914651
-0.133773
-0.179295
-0.225116
-0.271522
-0.321224
-0.375357
-0.43354
-0.495894
-0.565134
-0.641035
-0.723806
-0.814813
-0.917446
-1.04169
-1.19032
-1.37643
-1.64053
-2.04838
-2.74123
-3.2678
-1.14661
1.32213
1.28986
0.860115
0.591563
0.412194
0.285095
0.194285
0.129603
0.0829284
0.0506682
0.0295341
0.015942
0.00832573
0.00658172
0.00811003
0.011789
0.0184017
0.0268012
0.0359374
0.0463759
0.0619845
0.0813708
0.10149
0.127325
0.160567
0.19886
0.250448
0.342243
0.412692
0.438004
0.35971
0.245106
0.166574
0.103845
0.0486109
0.00032047
-0.04521
-0.0897283
-0.132714
-0.175571
-0.221025
-0.268134
-0.316796
-0.370287
-0.429094
-0.491163
-0.558864
-0.633967
-0.71648
-0.80675
-0.908454
-1.03162
-1.17878
-1.36203
-1.62314
-2.0263
-2.70771
-3.20384
-1.08342
1.33775
1.28095
0.850785
0.58334
0.404577
0.278107
0.187801
0.123743
0.0779725
0.045922
0.025023
0.0117112
0.00435207
0.00294083
0.00514956
0.00906374
0.0147788
0.0235072
0.0342076
0.0451283
0.0611241
0.0804624
0.098262
0.123884
0.160451
0.199909
0.250512
0.342338
0.412907
0.438097
0.359888
0.245518
0.167286
0.104824
0.0494832
0.0020088
-0.0421957
-0.0875547
-0.130798
-0.172174
-0.21676
-0.263445
-0.312403
-0.365548
-0.42325
-0.484816
-0.551828
-0.626431
-0.708369
-0.797647
-0.898739
-1.02105
-1.16554
-1.34554
-1.60343
-1.99942
-2.66937
-3.15016
-1.03898
1.34144
1.27134
0.840159
0.573925
0.395648
0.270327
0.181129
0.11731
0.0721323
0.0404617
0.0196607
0.00681646
0.00047171
-0.000630329
0.00104749
0.00520446
0.0117943
0.0206256
0.0314301
0.0435944
0.0598822
0.0782764
0.0956944
0.121889
0.160052
0.200155
0.250258
0.342243
0.412929
0.438095
0.360035
0.245971
0.168065
0.106
0.0510338
0.00394313
-0.0398448
-0.0847747
-0.127596
-0.168702
-0.212472
-0.258428
-0.307418
-0.359738
-0.416879
-0.478148
-0.543866
-0.617978
-0.699034
-0.787108
-0.88808
-1.0081
-1.14918
-1.32832
-1.58405
-1.97134
-2.6245
-3.07863
-0.97467
1.35426
1.26061
0.8284
0.563019
0.385703
0.261647
0.173481
0.109906
0.0654835
0.034679
0.0139043
0.00124564
-0.00453915
-0.00495962
-0.00316233
0.00131038
0.00914002
0.0176818
0.0278445
0.0415612
0.0573856
0.0746791
0.0942745
0.121583
0.159181
0.199557
0.24988
0.341886
0.41273
0.438081
0.360184
0.246484
0.168915
0.107154
0.0525825
0.00561536
-0.0376159
-0.0808965
-0.123293
-0.164743
-0.207795
-0.253471
-0.301421
-0.352366
-0.40978
-0.470711
-0.535316
-0.608561
-0.688152
-0.775522
-0.875637
-0.991645
-1.13083
-1.31085
-1.56408
-1.9418
-2.57195
-2.99263
-0.905731
1.36589
1.24773
0.816055
0.550942
0.375204
0.252525
0.164227
0.101545
0.0579584
0.0279537
0.00735707
-0.00470833
-0.0100328
-0.0101412
-0.00756955
-0.00278829
0.00522773
0.0139124
0.0248204
0.0391599
0.0537872
0.071426
0.0935325
0.120753
0.156631
0.198426
0.25034
0.341695
0.412623
0.438036
0.360312
0.247044
0.169837
0.10832
0.0540397
0.00697893
-0.0353903
-0.0762689
-0.118148
-0.159991
-0.202236
-0.247316
-0.294563
-0.345247
-0.401441
-0.460643
-0.525487
-0.598049
-0.676046
-0.76291
-0.862088
-0.975094
-1.11122
-1.28894
-1.53758
-1.90776
-2.51721
-2.90316
-0.831521
1.3774
1.23297
0.801519
0.537047
0.363124
0.242647
0.154092
0.092642
0.0494366
0.0194508
0.000154002
-0.0108941
-0.0158681
-0.015867
-0.0127484
-0.00774895
0.000131303
0.00965034
0.0218451
0.0357946
0.0502407
0.0692757
0.0925797
0.118828
0.15254
0.196753
0.251423
0.341716
0.412657
0.437791
0.360314
0.247544
0.170799
0.109607
0.0558646
0.0091318
-0.0327273
-0.0720825
-0.112869
-0.154198
-0.195961
-0.239881
-0.286372
-0.337237
-0.391726
-0.449353
-0.514044
-0.585397
-0.662207
-0.747997
-0.847279
-0.958646
-1.08887
-1.26247
-1.50647
-1.86705
-2.45736
-2.80878
-0.751382
1.38919
1.21654
0.783466
0.52156
0.34924
0.230683
0.14262
0.0825392
0.0400869
0.00985201
-0.00769557
-0.0176738
-0.0226836
-0.0222508
-0.0187606
-0.013538
-0.00521599
0.00531562
0.0175525
0.0310353
0.0469298
0.0671481
0.0906583
0.116649
0.149367
0.195197
0.251601
0.341286
0.412324
0.437225
0.359966
0.247623
0.171548
0.110726
0.0580631
0.0130617
-0.0289281
-0.06844
-0.107884
-0.147949
-0.188796
-0.23158
-0.277001
-0.326469
-0.379705
-0.437841
-0.501697
-0.570251
-0.645967
-0.731014
-0.82902
-0.93761
-1.06452
-1.23589
-1.47194
-1.81859
-2.39048
-2.7071
-0.66331
1.40135
1.19832
0.764116
0.504427
0.334042
0.215611
0.129262
0.0714026
0.0303215
-0.000139319
-0.0169077
-0.0259792
-0.0305001
-0.029246
-0.0256988
-0.0200306
-0.0109074
5.89316e-05
0.0121174
0.0260674
0.0434289
0.0641557
0.0877599
0.114127
0.147104
0.193542
0.250492
0.340378
0.411633
0.436303
0.359166
0.247209
0.171823
0.111141
0.0601399
0.017908
-0.0240296
-0.0644684
-0.10234
-0.140562
-0.180086
-0.222012
-0.26668
-0.314257
-0.36566
-0.423739
-0.486871
-0.553033
-0.627887
-0.71196
-0.805892
-0.911543
-1.03884
-1.20756
-1.43167
-1.76396
-2.31461
-2.59666
-0.573468
1.41005
1.17736
0.741424
0.484903
0.316383
0.198262
0.115059
0.0589466
0.0183884
-0.0111477
-0.0271193
-0.0356614
-0.0395009
-0.0374878
-0.0332982
-0.0268692
-0.0175963
-0.00637127
0.00650337
0.0206213
0.0382527
0.0600618
0.0844016
0.111043
0.144362
0.19105
0.248584
0.339309
0.410842
0.434787
0.357958
0.246537
0.171311
0.11169
0.0627137
0.0219274
-0.0189829
-0.0587847
-0.0953599
-0.131842
-0.170372
-0.21093
-0.254006
-0.300722
-0.350594
-0.406263
-0.46807
-0.533179
-0.607356
-0.689174
-0.778861
-0.883073
-1.00886
-1.17084
-1.38592
-1.70435
-2.22873
-2.46202
-0.475848
1.42369
1.15185
0.715865
0.462053
0.295455
0.179798
0.0998175
0.0436888
0.00345183
-0.0235271
-0.0382741
-0.0462176
-0.0492935
-0.0470927
-0.0417048
-0.0343284
-0.0253535
-0.0137315
-4.45988e-05
0.0137453
0.0311372
0.0542434
0.0801901
0.10756
0.140809
0.187905
0.246182
0.337998
0.40966
0.432204
0.355787
0.245064
0.169904
0.112489
0.0664369
0.0252419
-0.0144613
-0.0516466
-0.0873374
-0.122047
-0.158891
-0.198095
-0.238792
-0.28414
-0.333191
-0.385984
-0.445663
-0.509661
-0.581581
-0.660881
-0.747734
-0.849941
-0.972096
-1.12687
-1.33353
-1.6383
-2.13121
-2.31362
-0.343848
1.43122
1.11993
0.684645
0.433586
0.270574
0.15913
0.0807909
0.0253702
-0.0127979
-0.0371481
-0.0509435
-0.0578582
-0.0600387
-0.0579037
-0.0515748
-0.0430563
-0.0342019
-0.0228173
-0.00871006
0.00597343
0.0234222
0.0459905
0.0730021
0.102441
0.136505
0.183651
0.242814
0.335676
0.407555
0.42812
0.351905
0.242149
0.167873
0.112774
0.0691838
0.0281357
-0.010046
-0.0442515
-0.07804
-0.110418
-0.145198
-0.183229
-0.221643
-0.26398
-0.311584
-0.362213
-0.418722
-0.480496
-0.549679
-0.626817
-0.710861
-0.809171
-0.927864
-1.07499
-1.27182
-1.56224
-2.01859
-2.13332
-0.198181
1.44185
1.08068
0.648545
0.400961
0.241026
0.133276
0.0573269
0.00494469
-0.0302368
-0.0527661
-0.0651913
-0.0706875
-0.0722444
-0.0695841
-0.0625769
-0.0537558
-0.0449092
-0.0336247
-0.0193362
-0.00419506
0.0134138
0.0357028
0.0624086
0.0932047
0.130124
0.178348
0.237715
0.331679
0.4043
0.422826
0.34567
0.237059
0.16434
0.111263
0.0693694
0.030617
-0.0040839
-0.0353717
-0.0668487
-0.0969159
-0.128956
-0.164787
-0.201165
-0.24006
-0.28463
-0.33308
-0.385616
-0.443809
-0.510282
-0.585227
-0.665306
-0.757661
-0.872199
-1.01229
-1.19694
-1.4696
-1.88298
-1.92525
-0.0413892
1.44274
1.03082
0.602749
0.360523
0.20542
0.101686
0.0296311
-0.0188172
-0.0507133
-0.0703369
-0.0806976
-0.0849139
-0.0852444
-0.0815866
-0.0747474
-0.0664372
-0.0576382
-0.0468613
-0.033018
-0.0186089
-0.0015709
0.0214849
0.0483772
0.0791733
0.119551
0.170766
0.230631
0.326039
0.400211
0.431084
0.34058
0.233846
0.162018
0.112017
0.0721788
0.0372837
0.0067596
-0.0223148
-0.0519707
-0.0803808
-0.109542
-0.141981
-0.176113
-0.211664
-0.251726
-0.296772
-0.345098
-0.398489
-0.459659
-0.529924
-0.605264
-0.691384
-0.800806
-0.933896
-1.10299
-1.35117
-1.7154
-1.66796
0.141831
1.43802
0.963947
0.541216
0.30759
0.160308
0.0622132
-0.00371543
-0.04704
-0.0740941
-0.0885658
-0.0967556
-0.100585
-0.099057
-0.0942065
-0.0883834
-0.0810367
-0.0726239
-0.0635503
-0.0518494
-0.0390233
-0.0237402
-0.00149935
0.0265602
0.0596787
0.105341
0.163382
0.228409
0.330445
0.418108
0.22235
0.172541
0.118275
0.0825663
0.0542056
0.0261178
0.000513113
-0.0225646
-0.0448791
-0.0670602
-0.0898425
-0.112787
-0.137417
-0.16463
-0.193099
-0.22466
-0.261027
-0.300856
-0.344638
-0.394492
-0.452194
-0.515068
-0.587987
-0.682004
-0.797538
-0.944949
-1.1524
-1.40919
-1.22176
0.348754
1.31413
0.843921
0.440943
0.220151
0.088459
0.00448983
-0.0489762
-0.083563
-0.104775
-0.115176
-0.121936
-0.125827
-0.124415
-0.1207
-0.117473
-0.113583
-0.108914
-0.105213
-0.101383
-0.0970595
-0.0922114
-0.0846996
-0.0742648
-0.0601187
-0.034086
0.00860405
0.0747103
0.194437
0.294441
-0.1631
-0.141054
-0.103042
-0.0670706
-0.0568842
-0.0661327
-0.078121
-0.0897152
-0.100163
-0.109494
-0.123081
-0.135957
-0.148975
-0.16604
-0.183582
-0.203285
-0.227605
-0.254849
-0.285031
-0.319397
-0.359449
-0.400777
-0.449892
-0.51722
-0.599323
-0.708654
-0.880212
-1.20336
-1.11427
0.711304
1.58377
0.669911
0.224596
0.0599319
-0.0269961
-0.079796
-0.110486
-0.131272
-0.145163
-0.150672
-0.156002
-0.160091
-0.159518
-0.158323
-0.158898
-0.160112
-0.161309
-0.165871
-0.173746
-0.18295
-0.195781
-0.213461
-0.237186
-0.265093
-0.285265
-0.287648
-0.24763
-0.0939885
0.0371804
-20.4342
-11.2725
-0.155004
-1.29256
-0.998107
-0.738745
-0.576645
-0.462925
-0.375121
-0.322987
-0.291791
-0.265062
-0.250141
-0.244006
-0.24254
-0.247866
-0.259298
-0.277602
-0.299301
-0.324934
-0.352099
-0.38229
-0.420787
-0.463842
-0.515787
-0.584883
-0.686778
-0.917891
-0.534702
0.179135
-34.9037
-22.2047
-7.90116
-4.81857
-3.08881
-2.12322
-1.54663
-1.1907
-0.947606
-0.785845
-0.667695
-0.578382
-0.512934
-0.465977
-0.432714
-0.410354
-0.397919
-0.393176
-0.393135
-0.398026
-0.406575
-0.419362
-0.43803
-0.46165
-0.4937
-0.53804
-0.603697
-0.70682
-0.43171
0.20421
-47.674
-28.2168
-10.7097
-6.31976
-4.14267
-2.91266
-2.1496
-1.65046
-1.31901
-1.08893
-0.917046
-0.787246
-0.692579
-0.620868
-0.567253
-0.527749
-0.499377
-0.479228
-0.464881
-0.456008
-0.45144
-0.451807
-0.456877
-0.465564
-0.480079
-0.501481
-0.542162
-0.633766
-0.350836
0.276921
-37.7402
-25.8226
-11.8943
-6.96851
-4.56135
-3.17388
-2.33321
-1.79618
-1.432
-1.17794
-0.991695
-0.854663
-0.754165
-0.676835
-0.617964
-0.573979
-0.540493
-0.515342
-0.496922
-0.483883
-0.474907
-0.47049
-0.468827
-0.468704