# vtk DataFile Version 2.0
scalar
ASCII
DATASET UNSTRUCTURED_GRID
POINTS 2010 float
1.0 0.0 0.0
0.9971 0.0 0.0004
0.9883 0.0 0.0014
0.9738 0.0 0.0031
0.9538 0.0 0.0054
0.9284 0.0 0.0083
0.898 0.0 0.0116
0.863 0.0 0.0152
0.8237 0.0 0.0192
0.7806 0.0 0.0232
0.7342 0.0 0.0274
0.6851 0.0 0.0315
0.6338 0.0 0.0355
0.5809 0.0 0.0392
0.5271 0.0 0.0425
0.4729 0.0 0.0454
0.4191 0.0 0.0477
0.3662 0.0 0.0492
0.3149 0.0 0.05
0.2658 0.0 0.0498
0.2194 0.0 0.0486
0.1763 0.0 0.0465
0.137 0.0 0.0434
0.102 0.0 0.0393
0.0716 0.0 0.0344
0.0462 0.0 0.0286
0.0262 0.0 0.0222
0.0117 0.0 0.0153
0.0029 0.0 0.0079
0.0 0.0 0.0
0.0029 0.0 -0.0079
0.0117 0.0 -0.0153
0.0262 0.0 -0.0222
0.0462 0.0 -0.0286
0.0716 0.0 -0.0344
0.102 0.0 -0.0393
0.137 0.0 -0.0434
0.1763 0.0 -0.0465
0.2194 0.0 -0.0486
0.2658 0.0 -0.0498
0.3149 0.0 -0.05
0.3662 0.0 -0.0492
0.4191 0.0 -0.0477
0.4729 0.0 -0.0454
0.5271 0.0 -0.0425
0.5809 0.0 -0.0392
0.6338 0.0 -0.0355
0.6851 0.0 -0.0315
0.7342 0.0 -0.0274
0.7806 0.0 -0.0232
0.8237 0.0 -0.0192
0.863 0.0 -0.0152
0.898 0.0 -0.0116
0.9284 0.0 -0.0083
0.9538 0.0 -0.0054
0.9738 0.0 -0.0031
0.9883 0.0 -0.0014
0.9971 0.0 -0.0004
1.0 0.0 0.0
1.0 0.1034 0.0
0.9971 0.1034 0.0003
0.9883 0.1034 0.0011
0.9738 0.1034 0.0025
0.9537 0.1034 0.0043
0.9282 0.1034 0.0065
0.8978 0.1034 0.009
0.8627 0.1034 0.0118
0.8233 0.1034 0.0147
0.7801 0.1034 0.0177
0.7336 0.1034 0.0207
0.6844 0.1034 0.0236
0.633 0.1034 0.0262
0.58 0.1034 0.0286
0.5261 0.1034 0.0306
0.472 0.1034 0.0321
0.4181 0.1034 0.033
0.3652 0.1034 0.0333
0.3139 0.1034 0.0327
0.2648 0.1034 0.0313
0.2184 0.1034 0.0289
0.1754 0.1034 0.0257
0.1362 0.1034 0.0216
0.1012 0.1034 0.0167
0.071 0.1034 0.011
0.0458 0.1034 0.0046
0.0259 0.1034 -0.0023
0.0116 0.1034 -0.0096
0.003 0.1034 -0.0173
0.0003 0.1034 -0.0252
0.0034 0.1034 -0.033
0.0124 0.1034 -0.0402
0.027 0.1034 -0.0468
0.0472 0.1034 -0.0527
0.0727 0.1034 -0.0577
0.1032 0.1034 -0.0619
0.1384 0.1034 -0.0651
0.1777 0.1034 -0.0672
0.2209 0.1034 -0.0683
0.2673 0.1034 -0.0683
0.3164 0.1034 -0.0672
0.3677 0.1034 -0.0652
0.4205 0.1034 -0.0623
0.4742 0.1034 -0.0587
0.5283 0.1034 -0.0544
0.582 0.1034 -0.0497
0.6348 0.1034 -0.0447
0.686 0.1034 -0.0394
0.735 0.1034 -0.0341
0.7812 0.1034 -0.0288
0.8242 0.1034 -0.0236
0.8634 0.1034 -0.0187
0.8984 0.1034 -0.0141
0.9287 0.1034 -0.0101
0.9539 0.1034 -0.0066
0.9739 0.1034 -0.0038
0.9883 0.1034 -0.0017
0.9971 0.1034 -0.0004
1.0 0.1034 0.0
1.0 0.2069 0.0
0.9971 0.2069 0.0003
0.9883 0.2069 0.001
0.9737 0.2069 0.0023
0.9536 0.2069 0.0039
0.9282 0.2069 0.006
0.8977 0.2069 0.0083
0.8626 0.2069 0.0108
0.8232 0.2069 0.0134
0.78 0.2069 0.0161
0.7335 0.2069 0.0188
0.6842 0.2069 0.0213
0.6328 0.2069 0.0236
0.5798 0.2069 0.0256
0.5259 0.2069 0.0272
0.4717 0.2069 0.0284
0.4179 0.2069 0.0289
0.365 0.2069 0.0287
0.3137 0.2069 0.0278
0.2646 0.2069 0.026
0.2182 0.2069 0.0234
0.1752 0.2069 0.0198
0.1361 0.2069 0.0154
0.1012 0.2069 0.0102
0.0709 0.2069 0.0043
0.0458 0.2069 -0.0022
0.026 0.2069 -0.0092
0.0117 0.2069 -0.0167
0.0032 0.2069 -0.0244
0.0005 0.2069 -0.0323
0.0037 0.2069 -0.0401
0.0127 0.2069 -0.0472
0.0274 0.2069 -0.0537
0.0476 0.2069 -0.0595
0.0732 0.2069 -0.0644
0.1037 0.2069 -0.0683
0.1389 0.2069 -0.0712
0.1782 0.2069 -0.0731
0.2214 0.2069 -0.0738
0.2678 0.2069 -0.0735
0.3169 0.2069 -0.0721
0.3682 0.2069 -0.0697
0.421 0.2069 -0.0664
0.4747 0.2069 -0.0624
0.5287 0.2069 -0.0578
0.5824 0.2069 -0.0527
0.6351 0.2069 -0.0473
0.6863 0.2069 -0.0417
0.7352 0.2069 -0.036
0.7815 0.2069 -0.0303
0.8244 0.2069 -0.0248
0.8636 0.2069 -0.0197
0.8985 0.2069 -0.0149
0.9287 0.2069 -0.0106
0.954 0.2069 -0.0069
0.9739 0.2069 -0.004
0.9884 0.2069 -0.0018
0.9971 0.2069 -0.0004
1.0 0.2069 0.0
1.0 0.3103 0.0
0.9971 0.3103 0.0002
0.9883 0.3103 0.001
0.9737 0.3103 0.0022
0.9536 0.3103 0.0037
0.9282 0.3103 0.0057
0.8977 0.3103 0.0078
0.8625 0.3103 0.0102
0.8231 0.3103 0.0127
0.7799 0.3103 0.0152
0.7334 0.3103 0.0176
0.6841 0.3103 0.0199
0.6327 0.3103 0.022
0.5797 0.3103 0.0238
0.5258 0.3103 0.0252
0.4716 0.3103 0.0261
0.4178 0.3103 0.0264
0.3649 0.3103 0.026
0.3136 0.3103 0.0248
0.2645 0.3103 0.0228
0.2181 0.3103 0.02
0.1752 0.3103 0.0163
0.136 0.3103 0.0117
0.1011 0.3103 0.0064
0.0709 0.3103 0.0003
0.0458 0.3103 -0.0063
0.026 0.3103 -0.0135
0.0118 0.3103 -0.0209
0.0033 0.3103 -0.0287
0.0007 0.3103 -0.0367
0.0039 0.3103 -0.0444
0.0129 0.3103 -0.0515
0.0276 0.3103 -0.0579
0.0479 0.3103 -0.0636
0.0735 0.3103 -0.0684
0.104 0.3103 -0.0722
0.1392 0.3103 -0.075
0.1786 0.3103 -0.0767
0.2217 0.3103 -0.0772
0.2681 0.3103 -0.0767
0.3172 0.3103 -0.075
0.3685 0.3103 -0.0724
0.4212 0.3103 -0.0689
0.4749 0.3103 -0.0647
0.5289 0.3103 -0.0599
0.5826 0.3103 -0.0545
0.6353 0.3103 -0.0489
0.6864 0.3103 -0.043
0.7354 0.3103 -0.0371
0.7816 0.3103 -0.0313
0.8245 0.3103 -0.0256
0.8636 0.3103 -0.0203
0.8985 0.3103 -0.0153
0.9288 0.3103 -0.0109
0.954 0.3103 -0.0071
0.974 0.3103 -0.0041
0.9884 0.3103 -0.0018
0.9971 0.3103 -0.0005
1.0 0.3103 0.0
1.0 0.4138 0.0
0.9971 0.4138 0.0002
0.9883 0.4138 0.0009
0.9737 0.4138 0.0021
0.9536 0.4138 0.0036
0.9282 0.4138 0.0054
0.8977 0.4138 0.0075
0.8625 0.4138 0.0098
0.8231 0.4138 0.0122
0.7798 0.4138 0.0145
0.7333 0.4138 0.0168
0.6841 0.4138 0.019
0.6326 0.4138 0.0209
0.5797 0.4138 0.0226
0.5258 0.4138 0.0238
0.4715 0.4138 0.0245
0.4177 0.4138 0.0246
0.3648 0.4138 0.0241
0.3135 0.4138 0.0228
0.2644 0.4138 0.0207
0.2181 0.4138 0.0177
0.1751 0.4138 0.0138
0.136 0.4138 0.0092
0.1011 0.4138 0.0037
0.0709 0.4138 -0.0024
0.0458 0.4138 -0.0092
0.0261 0.4138 -0.0163
0.0119 0.4138 -0.0239
0.0034 0.4138 -0.0316
0.0008 0.4138 -0.0396
0.004 0.4138 -0.0473
0.0131 0.4138 -0.0544
0.0278 0.4138 -0.0608
0.0481 0.4138 -0.0664
0.0737 0.4138 -0.0711
0.1042 0.4138 -0.0748
0.1394 0.4138 -0.0775
0.1788 0.4138 -0.0791
0.2219 0.4138 -0.0795
0.2683 0.4138 -0.0788
0.3174 0.4138 -0.0771
0.3687 0.4138 -0.0743
0.4215 0.4138 -0.0707
0.4751 0.4138 -0.0663
0.5291 0.4138 -0.0612
0.5828 0.4138 -0.0558
0.6355 0.4138 -0.0499
0.6866 0.4138 -0.0439
0.7355 0.4138 -0.0379
0.7817 0.4138 -0.0319
0.8246 0.4138 -0.0261
0.8637 0.4138 -0.0207
0.8986 0.4138 -0.0156
0.9288 0.4138 -0.0111
0.954 0.4138 -0.0073
0.974 0.4138 -0.0042
0.9884 0.4138 -0.0019
0.9971 0.4138 -0.0005
1.0 0.4138 0.0
1.0 0.5172 0.0
0.9971 0.5172 0.0002
0.9883 0.5172 0.0009
0.9737 0.5172 0.002
0.9536 0.5172 0.0035
0.9281 0.5172 0.0053
0.8977 0.5172 0.0073
0.8625 0.5172 0.0095
0.823 0.5172 0.0118
0.7798 0.5172 0.0141
0.7333 0.5172 0.0163
0.684 0.5172 0.0183
0.6326 0.5172 0.0202
0.5796 0.5172 0.0217
0.5257 0.5172 0.0228
0.4715 0.5172 0.0234
0.4176 0.5172 0.0234
0.3647 0.5172 0.0227
0.3134 0.5172 0.0213
0.2644 0.5172 0.0191
0.2181 0.5172 0.016
0.1751 0.5172 0.0121
0.1359 0.5172 0.0073
0.1011 0.5172 0.0018
0.0709 0.5172 -0.0044
0.0458 0.5172 -0.0112
0.0261 0.5172 -0.0184
0.0119 0.5172 -0.026
0.0035 0.5172 -0.0338
0.0009 0.5172 -0.0417
0.0041 0.5172 -0.0495
0.0132 0.5172 -0.0565
0.028 0.5172 -0.0629
0.0482 0.5172 -0.0684
0.0738 0.5172 -0.0731
0.1044 0.5172 -0.0767
0.1396 0.5172 -0.0793
0.179 0.5172 -0.0808
0.2221 0.5172 -0.0812
0.2685 0.5172 -0.0804
0.3176 0.5172 -0.0785
0.3688 0.5172 -0.0756
0.4216 0.5172 -0.0719
0.4753 0.5172 -0.0674
0.5293 0.5172 -0.0622
0.5829 0.5172 -0.0566
0.6356 0.5172 -0.0507
0.6867 0.5172 -0.0446
0.7356 0.5172 -0.0385
0.7818 0.5172 -0.0324
0.8246 0.5172 -0.0265
0.8638 0.5172 -0.0209
0.8986 0.5172 -0.0158
0.9288 0.5172 -0.0113
0.9541 0.5172 -0.0074
0.974 0.5172 -0.0042
0.9884 0.5172 -0.0019
0.9971 0.5172 -0.0005
1.0 0.5172 0.0
1.0 0.6207 0.0
0.9971 0.6207 0.0002
0.9883 0.6207 0.0009
0.9737 0.6207 0.002
0.9536 0.6207 0.0034
0.9281 0.6207 0.0052
0.8976 0.6207 0.0072
0.8625 0.6207 0.0093
0.823 0.6207 0.0115
0.7798 0.6207 0.0137
0.7333 0.6207 0.0158
0.684 0.6207 0.0178
0.6326 0.6207 0.0196
0.5796 0.6207 0.021
0.5257 0.6207 0.022
0.4715 0.6207 0.0225
0.4176 0.6207 0.0225
0.3647 0.6207 0.0217
0.3134 0.6207 0.0202
0.2643 0.6207 0.0179
0.218 0.6207 0.0148
0.1751 0.6207 0.0108
0.1359 0.6207 0.0059
0.1011 0.6207 0.0004
0.071 0.6207 -0.0059
0.0459 0.6207 -0.0127
0.0261 0.6207 -0.0199
0.012 0.6207 -0.0275
0.0035 0.6207 -0.0353
0.0009 0.6207 -0.0433
0.0042 0.6207 -0.051
0.0133 0.6207 -0.0581
0.0281 0.6207 -0.0644
0.0483 0.6207 -0.0699
0.0739 0.6207 -0.0745
0.1045 0.6207 -0.0782
0.1397 0.6207 -0.0807
0.1791 0.6207 -0.0821
0.2222 0.6207 -0.0824
0.2686 0.6207 -0.0815
0.3177 0.6207 -0.0796
0.369 0.6207 -0.0766
0.4217 0.6207 -0.0728
0.4754 0.6207 -0.0682
0.5294 0.6207 -0.063
0.583 0.6207 -0.0573
0.6356 0.6207 -0.0513
0.6867 0.6207 -0.0451
0.7356 0.6207 -0.0389
0.7818 0.6207 -0.0327
0.8247 0.6207 -0.0268
0.8638 0.6207 -0.0212
0.8986 0.6207 -0.016
0.9289 0.6207 -0.0114
0.9541 0.6207 -0.0074
0.974 0.6207 -0.0042
0.9884 0.6207 -0.0019
0.9971 0.6207 -0.0005
1.0 0.6207 0.0
1.0 0.7241 0.0
0.9971 0.7241 0.0002
0.9883 0.7241 0.0009
0.9737 0.7241 0.0019
0.9536 0.7241 0.0034
0.9281 0.7241 0.0051
0.8976 0.7241 0.007
0.8625 0.7241 0.0091
0.823 0.7241 0.0113
0.7798 0.7241 0.0134
0.7332 0.7241 0.0155
0.684 0.7241 0.0174
0.6325 0.7241 0.0191
0.5796 0.7241 0.0205
0.5256 0.7241 0.0215
0.4714 0.7241 0.0219
0.4176 0.7241 0.0218
0.3647 0.7241 0.021
0.3134 0.7241 0.0194
0.2643 0.7241 0.017
0.218 0.7241 0.0138
0.1751 0.7241 0.0098
0.1359 0.7241 0.0049
0.1011 0.7241 -0.0007
0.071 0.7241 -0.007
0.0459 0.7241 -0.0138
0.0261 0.7241 -0.0211
0.012 0.7241 -0.0287
0.0036 0.7241 -0.0365
0.001 0.7241 -0.0445
0.0043 0.7241 -0.0522
0.0134 0.7241 -0.0593
0.0281 0.7241 -0.0656
0.0484 0.7241 -0.0711
0.074 0.7241 -0.0757
0.1046 0.7241 -0.0792
0.1398 0.7241 -0.0817
0.1792 0.7241 -0.0831
0.2223 0.7241 -0.0833
0.2687 0.7241 -0.0824
0.3178 0.7241 -0.0804
0.3691 0.7241 -0.0774
[...]
POINT_DATA 2010
SCALARS cp1 float
LOOKUP_TABLE default
0.420541
0.333999
0.222725
0.156951
0.100088
0.0513884
0.00622076
-0.0373138
-0.078917
-0.116627
-0.158017
-0.200469
-0.241048
-0.283776
-0.329532
-0.37952
-0.432555
-0.489479
-0.551713
-0.615377
-0.681995
-0.760587
-0.852575
-0.965123
-1.11098
-1.30775
-1.64254
-2.44122
-3.43573
-1.43351
1.2781
1.2712
0.787835
0.514998
0.33167
0.20144
0.107619
0.044431
0.00186031
-0.0270952
-0.0419472
-0.0474504
-0.0490573
-0.0453216
-0.0366243
-0.0288101
-0.0197218
-0.00659504
0.0069566
0.0221913
0.039384
0.0610051
0.0861461
0.11345
0.148275
0.187975
0.240685
0.341681
0.415286
0.414891
0.340783
0.235239
0.161496
0.101952
0.050382
0.00425574
-0.0384116
-0.0794922
-0.119572
-0.161591
-0.203362
-0.244771
-0.288932
-0.336786
-0.388588
-0.443715
-0.503253
-0.56829
-0.637583
-0.713339
-0.799806
-0.901798
-1.02761
-1.18684
-1.40305
-1.7354
-2.19907
-1.96072
-0.0131302
1.53104
1.09806
0.695582
0.453989
0.292307
0.179752
0.0986135
0.0423645
0.00336431
-0.0233264
-0.0381379
-0.04423
-0.0453898
-0.0422152
-0.0350358
-0.0267064
-0.0174013
-0.00533511
0.00811474
0.0242137
0.0426056
0.0628493
0.0874603
0.116909
0.153077
0.197458
0.262177
0.364728
0.434709
0.419215
0.340559
0.230027
0.156682
0.0994879
0.04736
0.00113573
-0.0405288
-0.0817353
-0.122334
-0.163994
-0.205176
-0.246909
-0.291798
-0.340567
-0.393585
-0.449266
-0.509099
-0.574317
-0.645338
-0.724466
-0.811016
-0.910059
-1.03086
-1.17989
-1.37171
-1.64921
-2.09262
-2.15709
-0.443894
1.39436
1.10193
0.657235
0.410261
0.256308
0.155135
0.0826686
0.0319605
-0.00256037
-0.0264487
-0.0397723
-0.0446734
-0.0449119
-0.0419387
-0.0353548
-0.0264862
-0.0169513
-0.00503147
0.00820483
0.0245491
0.0431063
0.0617355
0.0856851
0.115922
0.151328
0.19313
0.256183
0.359939
0.434267
0.438371
0.357177
0.238177
0.158812
0.101404
0.0491533
0.00264547
-0.0408316
-0.08367
-0.12357
-0.163667
-0.204781
-0.24755
-0.293455
-0.342155
-0.394237
-0.449562
-0.508985
-0.572906
-0.643069
-0.72105
-0.804251
-0.899145
-1.01391
-1.15543
-1.34132
-1.61659
-2.06664
-2.13527
-0.206965
1.46057
1.0744
0.642907
0.398786
0.245079
0.144127
0.0723242
0.0223413
-0.00972115
-0.0313355
-0.0433398
-0.0472311
-0.0471335
-0.0438316
-0.0369553
-0.0278863
-0.0173042
-0.0047403
0.0080681
0.0238017
0.0420323
0.0604299
0.0850294
0.115371
0.14835
0.188664
0.246631
0.341527
0.409277
0.444113
0.363669
0.243287
0.160742
0.10157
0.0503624
0.00406976
-0.0409386
-0.0844655
-0.123966
-0.16322
-0.204302
-0.247958
-0.294442
-0.342546
-0.393234
-0.447862
-0.507092
-0.571104
-0.640723
-0.715794
-0.797494
-0.891183
-1.00387
-1.14152
-1.3227
-1.59034
-2.02848
-2.08292
-0.144239
1.45455
1.05676
0.628857
0.387736
0.236092
0.135925
0.0653649
0.0158547
-0.0156951
-0.0358471
-0.0466856
-0.0501006
-0.0504656
-0.0463646
-0.0379741
-0.0289901
-0.0177831
-0.00511459
0.00686208
0.022546
0.0410229
0.060398
0.0852825
0.113478
0.144775
0.186413
0.24275
0.333783
0.401779
0.438318
0.358889
0.241307
0.161479
0.101738
0.0494502
0.0031469
-0.0409011
-0.0837255
-0.12379
-0.162903
-0.203925
-0.248212
-0.294243
-0.341268
-0.391745
-0.446532
-0.504615
-0.567724
-0.636718
-0.711085
-0.791756
-0.883007
-0.993308
-1.12785
-1.3069
-1.57278
-1.99426
-2.02588
-0.101785
1.45624
1.04272
0.615861
0.378792
0.227971
0.127823
0.0594272
0.0110083
-0.0210478
-0.0403463
-0.0500786
-0.0529944
-0.0531493
-0.0486288
-0.0395443
-0.0300692
-0.0187722
-0.0066272
0.00559397
0.0216925
0.0401413
0.0606056
0.0849312
0.111262
0.144429
0.189409
0.245615
0.335876
0.406354
0.437539
0.355935
0.238511
0.161511
0.101812
0.0483844
0.0021536
-0.0409475
-0.0829595
-0.12284
-0.162112
-0.203339
-0.247475
-0.292956
-0.339483
-0.389723
-0.445059
-0.502755
-0.563853
-0.631433
-0.706172
-0.786404
-0.875375
-0.983016
-1.11362
-1.29148
-1.55661
-1.96613
-1.9858
-0.0547096
1.45579
1.03039
0.605074
0.370373
0.220459
0.120568
0.0534057
0.00628765
-0.0252073
-0.0438875
-0.0536213
-0.0563661
-0.0550419
-0.0502238
-0.0421661
-0.0318713
-0.0200732
-0.00825583
0.00501384
0.0212326
0.038958
0.0598426
0.0839448
0.110309
0.145482
0.191886
0.247921
0.337167
0.406338
0.436978
0.353632
0.236321
0.161472
0.101514
0.0483695
0.00308647
-0.0407
-0.0823632
-0.121432
-0.161772
-0.203127
-0.245783
-0.291035
-0.338221
-0.387413
-0.442026
-0.500577
-0.561323
-0.626933
-0.700009
-0.780147
-0.868754
-0.97285
-1.1019
-1.2797
-1.54092
-1.94193
-1.94522
-0.015664
1.4572
1.01904
0.596216
0.361149
0.213123
0.11511
0.0483717
0.00132364
-0.0291642
-0.0471195
-0.0574678
-0.0600979
-0.05692
-0.0515322
-0.0445554
-0.0339002
-0.0218483
-0.00968618
0.00477431
0.020459
0.037597
0.0588936
0.0834741
0.110748
0.145517
0.190889
0.248958
0.339238
0.4069
0.436612
0.3522
0.234478
0.160983
0.101969
0.0490022
0.00353415
-0.0402746
-0.0811861
-0.120441
-0.16161
-0.202631
-0.243937
-0.28892
-0.336491
-0.384905
-0.438245
-0.497156
-0.55899
-0.623623
-0.694298
-0.773828
-0.86187
-0.963931
-1.09208
-1.26605
-1.51989
-1.91925
-1.90124
0.0261027
1.45745
1.00999
0.587115
0.352622
0.206894
0.110096
0.0430149
-0.00375107
-0.0329638
-0.0503641
-0.0612722
-0.0636375
-0.0591719
-0.0532584
-0.0462467
-0.0358426
-0.0243054
-0.0108866
0.00466396
0.0192761
0.0361111
0.0576924
0.0830077
0.111434
0.145323
0.190631
0.250332
0.34064
0.407395
0.437782
0.352625
0.233661
0.159899
0.102096
0.0494506
0.00350299
-0.0396073
-0.0802769
-0.119804
-0.160402
-0.200913
-0.242031
-0.286744
-0.334568
-0.382739
-0.434794
-0.493159
-0.555246
-0.619854
-0.689156
-0.767543
-0.854659
-0.956549
-1.08477
-1.2528
-1.49806
-1.89484
-1.87145
0.0496269
1.45526
1.00058
0.580298
0.344816
0.20054
0.104697
0.0371413
-0.00834107
-0.0361631
-0.0535039
-0.0646978
-0.0671192
-0.0620189
-0.0552474
-0.0478198
-0.0379084
-0.0265236
-0.0119725
0.00373545
0.0178306
0.0351794
0.0571658
0.0826886
0.110891
0.144917
0.191199
0.250003
0.340811
0.410148
0.439142
0.353262
0.232798
0.158468
0.102148
0.0503531
0.00473422
-0.0384377
-0.0796923
-0.118621
-0.15857
-0.199535
-0.240389
-0.284269
-0.331994
-0.380308
-0.431603
-0.489183
-0.551133
-0.61556
-0.683475
-0.761019
-0.847782
-0.947968
-1.0776
-1.24461
-1.48061
-1.86336
-1.8378
0.0715185
1.45319
0.992154
0.571332
0.338122
0.193531
0.0980885
0.0317719
-0.0120511
-0.0398605
-0.0575142
-0.0677146
-0.0699788
-0.0648343
-0.0574407
-0.0496946
-0.0400706
-0.0283812
-0.0136042
0.00200028
0.0167551
0.0345758
0.0572154
0.082485
0.110011
0.144928
0.189517
0.245699
0.340903
0.415655
0.43735
0.353454
0.233776
0.15844
0.10286
0.0511363
0.00561597
-0.037232
-0.0786511
-0.116849
-0.156718
-0.198271
-0.238716
-0.281481
-0.328572
-0.377198
-0.42861
-0.485814
-0.547038
-0.610336
-0.677582
-0.75518
-0.841852
-0.938317
-1.06539
-1.23437
-1.46742
-1.83353
-1.79054
0.0912974
1.44971
0.981203
0.562682
0.331838
0.187112
0.0914188
0.0265052
-0.0159315
-0.0441047
-0.0616658
-0.0707129
-0.0723725
-0.0676403
-0.0604606
-0.0521206
-0.0419351
-0.0296899
-0.015354
0.000145037
0.0159411
0.0336112
0.0561003
0.0816264
0.109828
0.145535
0.187048
0.242408
0.342197
0.418886
0.433375
0.354056
0.238012
0.159707
0.102783
0.051694
0.0053768
-0.036733
-0.0770004
-0.114934
-0.154412
-0.196156
-0.2367
-0.278769
-0.325278
-0.373941
-0.425481
-0.482128
-0.54243
-0.604348
-0.671959
-0.749948
-0.835649
-0.929184
-1.0512
-1.21952
-1.45246
-1.81143
-1.75712
0.127111
1.4488
0.969263
0.551604
0.324605
0.180847
0.0850014
0.021188
-0.0210352
-0.0484125
-0.0650177
-0.0741172
-0.0754775
-0.0709846
-0.063723
-0.0544476
-0.0435973
-0.030794
-0.0171167
-0.00223803
0.0146907
0.0329811
0.0548798
0.080695
0.109814
0.144888
0.185716
0.242711
0.343139
0.418141
0.430617
0.353271
0.240726
0.161248
0.102445
0.0527506
0.0061085
-0.0363473
-0.075581
-0.113058
-0.152141
-0.193782
-0.234343
-0.276025
-0.322082
-0.370466
-0.421647
-0.477314
-0.537665
-0.599747
-0.66611
-0.742695
-0.827256
-0.920226
-1.04028
-1.20508
-1.43482
-1.79198
-1.71209
0.158853
1.44633
0.957668
0.542086
0.317644
0.174178
0.0786463
0.0164817
-0.0259666
-0.0535567
-0.0691962
-0.0774711
-0.0786115
-0.0744938
-0.0666252
-0.0563961
-0.0454182
-0.0329982
-0.0193655
-0.00436598
0.0133618
0.032888
0.0543175
0.0797151
0.108752
0.142956
0.185632
0.244352
0.343127
0.417005
0.429451
0.351298
0.241401
0.163946
0.102683
0.0528866
0.00776681
-0.035304
-0.0746634
-0.111412
-0.150259
-0.190852
-0.230897
-0.273271
-0.318974
-0.367078
-0.417393
-0.471512
-0.532484
-0.595332
-0.659855
-0.734393
-0.817395
-0.910239
-1.03059
-1.19112
-1.4139
-1.76714
-1.67213
0.203636
1.44726
0.946464
0.532059
0.308922
0.166874
0.0720226
0.0110023
-0.0306936
-0.0588757
-0.074428
-0.080952
-0.0812356
-0.0778035
-0.0700648
-0.0588439
-0.047248
-0.0354383
-0.0213745
-0.00569129
0.0119199
0.0316874
0.0530287
0.0784416
0.107403
0.142198
0.186692
0.245438
0.342952
0.416756
0.429249
0.350129
0.240809
0.165203
0.103564
0.0530983
0.00905045
-0.0333486
-0.0728266
-0.109725
-0.148411
-0.187611
-0.227628
-0.270843
-0.31536
-0.362858
-0.412694
-0.465623
-0.526283
-0.589194
-0.653538
-0.727043
-0.807594
-0.90002
-1.0202
-1.17386
-1.38987
-1.73678
-1.63166
0.229292
1.44176
0.935178
0.521394
0.297767
0.158425
0.0651625
0.00439612
-0.0365248
-0.0636403
-0.0789627
-0.085368
-0.0846708
-0.080685
-0.0737094
-0.0622775
-0.0495071
-0.037412
-0.0229957
-0.00683084
0.0101679
0.0292906
0.0512315
0.0774126
0.107092
0.142992
0.187473
0.245345
0.342623
0.416598
0.429168
0.349538
0.239109
0.164499
0.105453
0.0550218
0.00993722
-0.0316964
-0.07047
-0.107673
-0.145949
-0.184806
-0.225269
-0.267599
-0.310611
-0.357467
-0.407583
-0.460595
-0.519839
-0.581599
-0.64591
-0.718828
-0.798385
-0.890579
-1.00843
-1.156
-1.36705
-1.7039
-1.58521
0.263605
1.43881
0.920073
0.509671
0.288233
0.149785
0.0577016
-0.00287978
-0.0430607
-0.0690224
-0.0834189
-0.0898435
-0.0886852
-0.0835323
-0.0770555
-0.0661096
-0.0524628
-0.0397369
-0.0249909
-0.00832701
0.00840299
0.0272017
0.0500412
0.0764491
0.106374
0.143727
0.188173
0.245217
0.342329
0.41636
0.429183
0.34955
0.238417
0.163686
0.106433
0.0572617
0.0111549
-0.0307484
-0.0683567
-0.105097
-0.142972
-0.182092
-0.222298
-0.262918
-0.305412
-0.351962
-0.402216
-0.455318
-0.513446
-0.573705
-0.637061
-0.709312
-0.788575
-0.879798
-0.993969
-1.13839
-1.3429
-1.66703
-1.53589
0.295529
1.43535
0.906077
0.497621
0.278084
0.140696
0.0493684
-0.0107839
-0.0496896
-0.0754852
-0.0890749
-0.0937387
-0.0925744
-0.0876087
-0.0805761
-0.0695202
-0.0558441
-0.042412
-0.0271008
-0.0103039
0.00678437
0.0254755
0.0485301
0.0753609
0.104958
0.143197
0.189106
0.246338
0.342578
0.416066
0.429878
0.34997
0.238353
0.162545
0.105533
0.0589315
0.0137094
-0.0289276
-0.0662393
-0.102427
-0.140116
-0.178708
-0.217852
-0.257833
-0.300249
-0.346725
-0.396342
-0.448357
-0.505517
-0.565406
-0.628926
-0.699346
-0.776735
-0.866381
-0.97655
-1.11871
-1.31772
-1.62768
-1.47891
0.336528
1.43169
0.890137
0.481321
0.264601
0.130612
0.0410774
-0.0180052
-0.0569975
-0.0826334
-0.0949895
-0.0982365
-0.0972667
-0.0926187
-0.0839673
-0.0727806
-0.0597996
-0.0450523
-0.0291374
-0.0126898
0.00500892
0.0237647
0.046571
0.0744187
0.10417
0.141279
0.188009
0.247639
0.344332
0.416682
0.429866
0.349068
0.237767
0.163172
0.106155
0.0600167
0.0155229
-0.0266349
-0.0634278
-0.0997574
-0.137234
-0.174305
-0.212439
-0.252452
-0.294896
-0.34112
-0.389444
-0.440466
-0.496431
-0.555761
-0.619783
-0.68845
-0.763554
-0.850911
-0.958308
-1.09818
-1.29155
-1.58727
-1.41208
0.384869
1.4286
0.87125
0.465162
0.251365
0.119
0.0312802
-0.0260094
-0.0654576
-0.0897941
-0.100614
-0.10404
-0.103023
-0.0975153
-0.0872803
-0.0761983
-0.0637128
-0.0479681
-0.0320586
-0.0156653
0.00310495
0.0224809
0.0446514
0.0724679
0.103589
0.140407
0.185773
0.247638
0.346362
0.417414
0.428745
0.346908
0.236854
0.165877
0.109062
0.0606915
0.0157637
-0.0243301
-0.0598823
-0.0968761
-0.133798
-0.169426
-0.206776
-0.246491
-0.288686
-0.33386
-0.380976
-0.432238
-0.487293
-0.544696
-0.608155
-0.676425
-0.749577
-0.83326
-0.939661
-1.07722
-1.26151
-1.54114
-1.34941
0.425375
1.41713
0.850547
0.447618
0.23725
0.106713
0.0202464
-0.0356558
-0.0743083
-0.0968147
-0.106812
-0.110747
-0.109236
-0.102333
-0.0916073
-0.0802233
-0.0671462
-0.0514648
-0.035717
-0.0185649
0.00120829
0.0208826
0.0425183
0.0697477
0.102277
0.140167
0.185278
0.248098
0.347111
0.41697
0.428207
0.345436
0.235334
0.166613
0.111003
0.061505
0.0168505
-0.0212268
-0.0562898
-0.0932874
-0.129336
-0.164695
-0.201101
-0.239589
-0.281126
-0.32493
-0.3718
-0.423273
-0.476913
-0.53252
-0.594497
-0.662307
-0.734201
-0.815138
-0.917583
-1.05103
-1.22839
-1.49078
-1.26662
0.478464
1.40629
0.826155
0.429899
0.220265
0.0924601
0.00870671
-0.0466062
-0.083731
-0.104132
-0.113578
-0.117889
-0.115764
-0.107515
-0.0967046
-0.0848762
-0.0710406
-0.0552697
-0.0389027
-0.0214705
-0.00171547
0.0186117
0.0405702
0.0674862
0.1004
0.138973
0.185652
0.249588
0.34717
0.416173
0.427868
0.344548
0.233312
0.164777
0.111697
0.0634404
0.0189952
-0.0181997
-0.052692
-0.08864
-0.123776
-0.158852
-0.19446
-0.232112
-0.272529
-0.314891
-0.361491
-0.412319
-0.464326
-0.519046
-0.579299
-0.645274
-0.716335
-0.796371
-0.892987
-1.01936
-1.19411
-1.43506
-1.18142
0.533587
1.3975
0.798883
0.406829
0.201547
0.076777
-0.00418599
-0.0588585
-0.0941044
-0.112435
-0.12105
-0.125255
-0.122392
-0.113309
-0.101922
-0.0892696
-0.0755179
-0.0596517
-0.0425371
-0.025393
-0.00550825
0.016259
0.0384393
0.0652769
0.0990869
0.137093
0.184264
0.250468
0.348298
0.416629
0.42494
0.343219
0.23387
0.164554
0.111902
0.0658694
0.0218991
-0.015733
-0.0490995
-0.0831548
-0.117604
-0.151646
-0.186118
-0.223404
-0.262872
-0.303723
-0.34893
-0.398606
-0.4498
-0.50388
-0.562257
-0.625417
-0.695348
-0.773696
-0.86585
-0.986296
-1.15207
-1.37214
-1.0927
0.590388
1.38496
0.77071
0.38203
0.181449
0.0586377
-0.0196227
-0.072099
-0.105036
-0.121909
-0.129849
-0.133013
-0.128649
-0.119105
-0.107556
-0.0940439
-0.0797363
-0.064065
-0.0471118
-0.029899
-0.0102034
0.0123607
0.0357989
0.06321
0.0971538
0.134693
0.180973
0.248392
0.34915
0.419111
0.419381
0.341137
0.235953
0.166253
0.111389
0.0675069
0.0256015
-0.0125168
-0.0454791
-0.0770429
-0.110471
-0.143903
-0.176617
-0.212218
-0.251033
-0.290895
-0.334122
-0.382234
-0.432514
-0.485276
-0.541601
-0.602751
-0.671398
-0.746272
-0.835034
-0.951319
-1.1012
-1.30278
-1.0015
0.647664
1.36766
0.734927
0.354308
0.15843
0.0378515
-0.0367308
-0.0859885
-0.116587
-0.132589
-0.140149
-0.141069
-0.134382
-0.1245
-0.113682
-0.100022
-0.0843965
-0.0682041
-0.0518349
-0.0347663
-0.0159782
0.00662938
0.0325772
0.0608322
0.0935037
0.131849
0.178038
0.243659
0.347336
0.421138
0.415406
0.338372
0.23502
0.164762
0.10989
0.0685413
0.0290204
-0.00854407
-0.0411853
-0.0706213
-0.102057
-0.134556
-0.165558
-0.199043
-0.23635
-0.27468
-0.316287
-0.362626
-0.411181
-0.461947
-0.516449
-0.576789
-0.643148
-0.713564
-0.799291
-0.909656
-1.04371
-1.22656
-0.888548
0.718855
1.34244
0.692286
0.320815
0.130358
0.015244
-0.0553677
-0.101146
-0.129317
-0.144191
-0.150535
-0.148811
-0.140324
-0.130003
-0.119462
-0.10593
-0.0898971
-0.0730933
-0.0569998
-0.0406086
-0.0221883
0.000366683
0.027387
0.0563106
0.0884183
0.127026
0.17455
0.24088
0.346605
0.421929
0.411887
0.33295
0.228855
0.16089
0.108553
0.0690333
0.0317069
-0.00438052
-0.0357524
-0.0631968
-0.0919026
-0.121845
-0.151953
-0.18395
-0.21801
-0.254227
-0.294323
-0.337849
-0.383683
-0.43265
-0.485858
-0.544196
-0.607574
-0.675213
-0.755968
-0.856021
-0.978363
-1.1403
-0.766554
0.791156
1.31256
0.644518
0.28027
0.0978346
-0.0104931
-0.0774648
-0.118863
-0.143446
-0.155525
-0.158823
-0.155531
-0.146623
-0.135467
-0.124103
-0.110648
-0.0956748
-0.0792055
-0.0630468
-0.0472262
-0.0295175
-0.00793331
0.0183305
0.0476312
0.0814735
0.120785
0.168762
0.238669
0.346566
0.42084
0.410697
0.324702
0.221651
0.157558
0.108424
0.0691597
0.0338991
0.00115997
-0.027489
-0.0531256
-0.0790592
-0.106075
-0.135415
-0.165202
-0.194877
-0.229017
-0.26676
-0.306108
-0.348242
-0.394863
-0.446311
-0.500946
-0.560199
-0.626386
-0.702601
-0.793342
-0.905543
-1.03534
-0.609109
0.879741
1.27398
0.583267
0.231173
0.0578054
-0.0433945
-0.103929
-0.138717
-0.157881
-0.165508
-0.16456
-0.15989
-0.151198
-0.139429
-0.127386
-0.114464
-0.100871
-0.0856472
-0.0701373
-0.0556957
-0.0403798
-0.0206156
0.00399651
0.0322912
0.0692578
0.113125
0.163554
0.237346
0.350116
0.428096
0.313039
0.25189
0.177483
0.130017
0.089678
0.0541926
0.0231591
-0.00395138
-0.0281468
-0.0505262
-0.0727062
-0.0953995
-0.120476
-0.145344
-0.16991
-0.199329
-0.231254
-0.26394
-0.299803
-0.339689
-0.383844
-0.430426
-0.480637
-0.538509
-0.607864
-0.689564
-0.780704
-0.834858
-0.36094
0.903506
1.15217
0.507633
0.165404
0.00367265
-0.0823967
-0.129444
-0.15431
-0.166737
-0.170396
-0.166939
-0.161216
-0.152843
-0.141956
-0.131308
-0.120121
-0.108559
-0.0965991
-0.0847344
-0.0744192
-0.064627
-0.0513258
-0.0352798
-0.0180656
0.00765241
0.0424023
0.087401
0.167388
0.297051
0.385584
0.139371
0.111852
0.0854145
0.0752454
0.0501428
0.0229631
-0.0014631
-0.0214048
-0.0396465
-0.0565267
-0.0732869
-0.0898601
-0.108413
-0.126637
-0.144237
-0.167437
-0.191379
-0.214731
-0.242108
-0.272332
-0.304964
-0.339478
-0.375385
-0.417176
-0.473976
-0.547809
-0.643896
-0.796523
-0.328793
1.15516
1.25149
0.29202
-0.00391864
-0.100006
-0.143078
-0.162766
-0.172056
-0.175015
-0.174406
-0.168687
-0.162364
-0.154194
-0.144297
-0.136518
-0.127843
-0.118763
-0.111387
-0.104625
-0.100333
-0.0992998
-0.0959187
-0.0936493
-0.0977706
-0.0963138
-0.0873959
-0.0701495
0.000839051
0.170364
0.292498
-29.7046
-17.8895
-4.02512
-2.07437
-1.14196
-0.690901
-0.459071
-0.332488
-0.260255
-0.216932
-0.191571
-0.178296
-0.174495
-0.17414
-0.179945
-0.192335
-0.205001
-0.221975
-0.243617
-0.265439
-0.288942
-0.315273
-0.340713
-0.366769
-0.399012
-0.441778
-0.491569
-0.612679
-0.174775
0.517945
-23.571
-13.4725
-4.31488
-2.23991
-1.358
-0.904019
-0.65088
-0.497817
-0.399879
-0.336685
-0.2945
-0.265406
-0.246978
-0.235242
-0.230892
-0.232274
-0.236172
-0.244221
-0.255881
-0.268497
-0.282657
-0.298728
-0.314902
-0.332525
-0.353678
-0.382064
-0.411618
-0.440992
-0.0982528
0.580825
-18.3715
-10.9133
-3.75923
-2.23375
-1.47771
-1.0536
-0.790603
-0.615905
-0.499579
-0.420802
-0.365382
-0.32475
-0.296883
-0.277788
-0.266561
-0.261012
-0.258352
-0.260263
-0.265243
-0.270827