# vtk DataFile Version 2.0
scalar
ASCII
DATASET UNSTRUCTURED_GRID
POINTS 2010 float
1.0 0.0 0.0
0.9971 0.0 0.0004
0.9883 0.0 0.0014
0.9738 0.0 0.0031
0.9538 0.0 0.0054
0.9284 0.0 0.0083
0.898 0.0 0.0116
0.863 0.0 0.0152
0.8237 0.0 0.0192
0.7806 0.0 0.0232
0.7342 0.0 0.0274
0.6851 0.0 0.0315
0.6338 0.0 0.0355
0.5809 0.0 0.0392
0.5271 0.0 0.0425
0.4729 0.0 0.0454
0.4191 0.0 0.0477
0.3662 0.0 0.0492
0.3149 0.0 0.05
0.2658 0.0 0.0498
0.2194 0.0 0.0486
0.1763 0.0 0.0465
0.137 0.0 0.0434
0.102 0.0 0.0393
0.0716 0.0 0.0344
0.0462 0.0 0.0286
0.0262 0.0 0.0222
0.0117 0.0 0.0153
0.0029 0.0 0.0079
0.0 0.0 0.0
0.0029 0.0 -0.0079
0.0117 0.0 -0.0153
0.0262 0.0 -0.0222
0.0462 0.0 -0.0286
0.0716 0.0 -0.0344
0.102 0.0 -0.0393
0.137 0.0 -0.0434
0.1763 0.0 -0.0465
0.2194 0.0 -0.0486
0.2658 0.0 -0.0498
0.3149 0.0 -0.05
0.3662 0.0 -0.0492
0.4191 0.0 -0.0477
0.4729 0.0 -0.0454
0.5271 0.0 -0.0425
0.5809 0.0 -0.0392
0.6338 0.0 -0.0355
0.6851 0.0 -0.0315
0.7342 0.0 -0.0274
0.7806 0.0 -0.0232
0.8237 0.0 -0.0192
0.863 0.0 -0.0152
0.898 0.0 -0.0116
0.9284 0.0 -0.0083
0.9538 0.0 -0.0054
0.9738 0.0 -0.0031
0.9883 0.0 -0.0014
0.9971 0.0 -0.0004
1.0 0.0 0.0
1.0 0.1034 0.0
0.9971 0.1034 0.0003
0.9883 0.1034 0.0013
0.9738 0.1034 0.0029
0.9538 0.1034 0.0051
0.9284 0.1034 0.0078
0.898 0.1034 0.0109
0.8629 0.1034 0.0143
0.8236 0.1034 0.018
0.7804 0.1034 0.0218
0.734 0.1034 0.0256
0.6849 0.1034 0.0294
0.6335 0.1034 0.033
0.5806 0.1034 0.0364
0.5268 0.1034 0.0394
0.4726 0.1034 0.0419
0.4188 0.1034 0.0438
0.3659 0.1034 0.045
0.3146 0.1034 0.0454
0.2655 0.1034 0.0448
0.2191 0.1034 0.0434
0.176 0.1034 0.041
0.1367 0.1034 0.0376
0.1017 0.1034 0.0333
0.0714 0.1034 0.0281
0.046 0.1034 0.0222
0.026 0.1034 0.0157
0.0116 0.1034 0.0086
0.0029 0.1034 0.0012
0.0 0.1034 -0.0067
0.003 0.1034 -0.0145
0.0118 0.1034 -0.0219
0.0263 0.1034 -0.0288
0.0464 0.1034 -0.035
0.0718 0.1034 -0.0406
0.1022 0.1034 -0.0453
0.1373 0.1034 -0.0492
0.1766 0.1034 -0.052
0.2198 0.1034 -0.0539
0.2661 0.1034 -0.0547
0.3153 0.1034 -0.0546
0.3666 0.1034 -0.0535
0.4194 0.1034 -0.0516
0.4732 0.1034 -0.049
0.5274 0.1034 -0.0457
0.5812 0.1034 -0.042
0.634 0.1034 -0.0379
0.6853 0.1034 -0.0336
0.7344 0.1034 -0.0292
0.7808 0.1034 -0.0247
0.8238 0.1034 -0.0203
0.8631 0.1034 -0.0162
0.8981 0.1034 -0.0123
0.9285 0.1034 -0.0088
0.9538 0.1034 -0.0057
0.9738 0.1034 -0.0033
0.9883 0.1034 -0.0015
0.9971 0.1034 -0.0004
1.0 0.1034 0.0
1.0 0.2069 0.0
0.9971 0.2069 0.0003
0.9883 0.2069 0.0013
0.9738 0.2069 0.0029
0.9537 0.2069 0.005
0.9284 0.2069 0.0077
0.898 0.2069 0.0107
0.8629 0.2069 0.0141
0.8235 0.2069 0.0176
0.7804 0.2069 0.0213
0.734 0.2069 0.0251
0.6848 0.2069 0.0288
0.6335 0.2069 0.0323
0.5806 0.2069 0.0356
0.5267 0.2069 0.0385
0.4726 0.2069 0.0409
0.4187 0.2069 0.0427
0.3658 0.2069 0.0438
0.3145 0.2069 0.0441
0.2654 0.2069 0.0434
0.219 0.2069 0.0419
0.1759 0.2069 0.0394
0.1367 0.2069 0.0359
0.1016 0.2069 0.0316
0.0713 0.2069 0.0263
0.046 0.2069 0.0204
0.026 0.2069 0.0139
0.0116 0.2069 0.0068
0.0029 0.2069 -0.0007
0.0 0.2069 -0.0086
0.003 0.2069 -0.0164
0.0119 0.2069 -0.0238
0.0264 0.2069 -0.0306
0.0465 0.2069 -0.0369
0.0719 0.2069 -0.0424
0.1023 0.2069 -0.047
0.1374 0.2069 -0.0508
0.1767 0.2069 -0.0536
0.2199 0.2069 -0.0554
0.2663 0.2069 -0.0561
0.3154 0.2069 -0.0559
0.3667 0.2069 -0.0547
0.4195 0.2069 -0.0527
0.4733 0.2069 -0.05
0.5275 0.2069 -0.0466
0.5812 0.2069 -0.0428
0.6341 0.2069 -0.0386
0.6854 0.2069 -0.0342
0.7345 0.2069 -0.0297
0.7808 0.2069 -0.0251
0.8239 0.2069 -0.0207
0.8631 0.2069 -0.0164
0.8982 0.2069 -0.0125
0.9285 0.2069 -0.0089
0.9538 0.2069 -0.0058
0.9739 0.2069 -0.0033
0.9883 0.2069 -0.0015
0.9971 0.2069 -0.0004
1.0 0.2069 0.0
1.0 0.3103 0.0
0.9971 0.3103 0.0003
0.9883 0.3103 0.0013
0.9738 0.3103 0.0029
0.9537 0.3103 0.005
0.9284 0.3103 0.0076
0.8979 0.3103 0.0106
0.8629 0.3103 0.0139
0.8235 0.3103 0.0174
0.7804 0.3103 0.0211
0.7339 0.3103 0.0248
0.6848 0.3103 0.0284
0.6334 0.3103 0.0319
0.5805 0.3103 0.0351
0.5267 0.3103 0.0379
0.4725 0.3103 0.0403
0.4187 0.3103 0.042
0.3658 0.3103 0.043
0.3145 0.3103 0.0433
0.2653 0.3103 0.0426
0.219 0.3103 0.041
0.1759 0.3103 0.0384
0.1366 0.3103 0.0349
0.1016 0.3103 0.0305
0.0713 0.3103 0.0253
0.046 0.3103 0.0193
0.026 0.3103 0.0127
0.0116 0.3103 0.0056
0.0029 0.3103 -0.0019
0.0 0.3103 -0.0098
0.0031 0.3103 -0.0176
0.0119 0.3103 -0.025
0.0264 0.3103 -0.0318
0.0465 0.3103 -0.038
0.072 0.3103 -0.0434
0.1024 0.3103 -0.0481
0.1375 0.3103 -0.0518
0.1768 0.3103 -0.0545
0.2199 0.3103 -0.0563
0.2663 0.3103 -0.057
0.3155 0.3103 -0.0567
0.3667 0.3103 -0.0554
0.4196 0.3103 -0.0534
0.4734 0.3103 -0.0506
0.5275 0.3103 -0.0472
0.5813 0.3103 -0.0433
0.6341 0.3103 -0.039
0.6854 0.3103 -0.0346
0.7345 0.3103 -0.03
0.7808 0.3103 -0.0254
0.8239 0.3103 -0.0209
0.8632 0.3103 -0.0166
0.8982 0.3103 -0.0126
0.9285 0.3103 -0.009
0.9538 0.3103 -0.0059
0.9739 0.3103 -0.0034
0.9883 0.3103 -0.0015
0.9971 0.3103 -0.0004
1.0 0.3103 0.0
1.0 0.4138 0.0
0.9971 0.4138 0.0003
0.9883 0.4138 0.0013
0.9738 0.4138 0.0028
0.9537 0.4138 0.0049
0.9283 0.4138 0.0075
0.8979 0.4138 0.0105
0.8628 0.4138 0.0138
0.8235 0.4138 0.0173
0.7804 0.4138 0.0209
0.7339 0.4138 0.0246
0.6848 0.4138 0.0282
0.6334 0.4138 0.0316
0.5805 0.4138 0.0348
0.5266 0.4138 0.0375
0.4725 0.4138 0.0398
0.4186 0.4138 0.0415
0.3658 0.4138 0.0425
0.3144 0.4138 0.0427
0.2653 0.4138 0.042
0.2189 0.4138 0.0404
0.1759 0.4138 0.0378
0.1366 0.4138 0.0342
0.1016 0.4138 0.0298
0.0713 0.4138 0.0245
0.046 0.4138 0.0186
0.026 0.4138 0.012
0.0116 0.4138 0.0048
0.0029 0.4138 -0.0027
0.0001 0.4138 -0.0106
0.0031 0.4138 -0.0184
0.0119 0.4138 -0.0257
0.0265 0.4138 -0.0325
0.0466 0.4138 -0.0387
0.072 0.4138 -0.0442
0.1024 0.4138 -0.0488
0.1375 0.4138 -0.0525
0.1768 0.4138 -0.0552
0.22 0.4138 -0.0569
0.2664 0.4138 -0.0575
0.3155 0.4138 -0.0572
0.3668 0.4138 -0.0559
0.4196 0.4138 -0.0538
0.4734 0.4138 -0.051
0.5275 0.4138 -0.0475
0.5813 0.4138 -0.0436
0.6342 0.4138 -0.0393
0.6854 0.4138 -0.0348
0.7345 0.4138 -0.0302
0.7809 0.4138 -0.0256
0.8239 0.4138 -0.021
0.8632 0.4138 -0.0167
0.8982 0.4138 -0.0127
0.9285 0.4138 -0.009
0.9538 0.4138 -0.0059
0.9739 0.4138 -0.0034
0.9883 0.4138 -0.0015
0.9971 0.4138 -0.0004
1.0 0.4138 0.0
1.0 0.5172 0.0
0.9971 0.5172 0.0003
0.9883 0.5172 0.0013
0.9738 0.5172 0.0028
0.9537 0.5172 0.0049
0.9283 0.5172 0.0075
0.8979 0.5172 0.0104
0.8628 0.5172 0.0137
0.8235 0.5172 0.0172
0.7803 0.5172 0.0208
0.7339 0.5172 0.0244
0.6847 0.5172 0.028
0.6334 0.5172 0.0314
0.5805 0.5172 0.0345
0.5266 0.5172 0.0373
0.4725 0.5172 0.0395
0.4186 0.5172 0.0412
0.3657 0.5172 0.0422
0.3144 0.5172 0.0423
0.2653 0.5172 0.0416
0.2189 0.5172 0.0399
0.1758 0.5172 0.0373
0.1366 0.5172 0.0338
0.1016 0.5172 0.0293
0.0712 0.5172 0.024
0.046 0.5172 0.018
0.026 0.5172 0.0114
0.0116 0.5172 0.0043
0.0029 0.5172 -0.0032
0.0001 0.5172 -0.0111
0.0031 0.5172 -0.0189
0.0119 0.5172 -0.0263
0.0265 0.5172 -0.0331
0.0466 0.5172 -0.0393
0.072 0.5172 -0.0447
0.1024 0.5172 -0.0493
0.1375 0.5172 -0.053
0.1769 0.5172 -0.0557
0.22 0.5172 -0.0573
0.2664 0.5172 -0.0579
0.3155 0.5172 -0.0576
0.3668 0.5172 -0.0563
0.4197 0.5172 -0.0542
0.4735 0.5172 -0.0513
0.5276 0.5172 -0.0478
0.5814 0.5172 -0.0439
0.6342 0.5172 -0.0395
0.6854 0.5172 -0.035
0.7345 0.5172 -0.0303
0.7809 0.5172 -0.0257
0.8239 0.5172 -0.0211
0.8632 0.5172 -0.0168
0.8982 0.5172 -0.0127
0.9285 0.5172 -0.0091
0.9539 0.5172 -0.0059
0.9739 0.5172 -0.0034
0.9883 0.5172 -0.0015
0.9971 0.5172 -0.0004
1.0 0.5172 0.0
1.0 0.6207 0.0
0.9971 0.6207 0.0003
0.9883 0.6207 0.0013
0.9738 0.6207 0.0028
0.9537 0.6207 0.0049
0.9283 0.6207 0.0075
0.8979 0.6207 0.0104
0.8628 0.6207 0.0137
0.8235 0.6207 0.0171
0.7803 0.6207 0.0207
0.7339 0.6207 0.0243
0.6847 0.6207 0.0279
0.6334 0.6207 0.0312
0.5805 0.6207 0.0343
0.5266 0.6207 0.0371
0.4724 0.6207 0.0393
0.4186 0.6207 0.041
0.3657 0.6207 0.0419
0.3144 0.6207 0.042
0.2653 0.6207 0.0413
0.2189 0.6207 0.0396
0.1758 0.6207 0.037
0.1366 0.6207 0.0334
0.1016 0.6207 0.0289
0.0712 0.6207 0.0236
0.0459 0.6207 0.0176
0.026 0.6207 0.011
0.0116 0.6207 0.0039
0.0029 0.6207 -0.0037
0.0001 0.6207 -0.0116
0.0031 0.6207 -0.0194
0.0119 0.6207 -0.0267
0.0265 0.6207 -0.0335
0.0466 0.6207 -0.0397
0.072 0.6207 -0.0451
0.1025 0.6207 -0.0497
0.1376 0.6207 -0.0533
0.1769 0.6207 -0.056
0.22 0.6207 -0.0576
0.2664 0.6207 -0.0583
0.3156 0.6207 -0.0579
0.3668 0.6207 -0.0566
0.4197 0.6207 -0.0544
0.4735 0.6207 -0.0515
0.5276 0.6207 -0.048
0.5814 0.6207 -0.044
0.6342 0.6207 -0.0397
0.6855 0.6207 -0.0351
0.7345 0.6207 -0.0305
0.7809 0.6207 -0.0258
0.8239 0.6207 -0.0212
0.8632 0.6207 -0.0168
0.8982 0.6207 -0.0128
0.9285 0.6207 -0.0091
0.9539 0.6207 -0.006
0.9739 0.6207 -0.0034
0.9883 0.6207 -0.0015
0.9971 0.6207 -0.0004
1.0 0.6207 0.0
1.0 0.7241 0.0
0.9971 0.7241 0.0003
0.9883 0.7241 0.0013
0.9738 0.7241 0.0028
0.9537 0.7241 0.0049
0.9283 0.7241 0.0074
0.8979 0.7241 0.0104
0.8628 0.7241 0.0136
0.8235 0.7241 0.0171
0.7803 0.7241 0.0206
0.7339 0.7241 0.0242
0.6847 0.7241 0.0278
0.6334 0.7241 0.0311
0.5805 0.7241 0.0342
0.5266 0.7241 0.0369
0.4724 0.7241 0.0392
0.4186 0.7241 0.0408
0.3657 0.7241 0.0417
0.3144 0.7241 0.0418
0.2653 0.7241 0.0411
0.2189 0.7241 0.0394
0.1758 0.7241 0.0367
0.1365 0.7241 0.0331
0.1016 0.7241 0.0286
0.0712 0.7241 0.0233
0.0459 0.7241 0.0173
0.026 0.7241 0.0107
0.0116 0.7241 0.0036
0.0029 0.7241 -0.004
0.0001 0.7241 -0.0119
0.0031 0.7241 -0.0197
0.0119 0.7241 -0.027
0.0265 0.7241 -0.0338
0.0466 0.7241 -0.04
0.072 0.7241 -0.0454
0.1025 0.7241 -0.05
0.1376 0.7241 -0.0536
0.1769 0.7241 -0.0563
0.22 0.7241 -0.0579
0.2664 0.7241 -0.0585
0.3156 0.7241 -0.0581
0.3669 0.7241 -0.0568
0.4197 0.7241 -0.0546
0.4735 0.7241 -0.0517
[...]
POINT_DATA 2010
SCALARS cp1 float
LOOKUP_TABLE default
0.426093
0.338799
0.22242
0.155368
0.0956528
0.0393315
-0.00872554
-0.0537378
-0.100954
-0.1444
-0.188394
-0.235352
-0.28308
-0.333957
-0.387524
-0.446347
-0.509587
-0.578768
-0.65558
-0.733604
-0.823581
-0.931059
-1.05186
-1.19825
-1.38271
-1.63963
-2.05114
-2.947
-4.05264
-1.73563
1.44434
1.4411
0.90537
0.626146
0.441008
0.310405
0.215436
0.147446
0.100074
0.0644482
0.04075
0.0281303
0.0199011
0.0165192
0.018862
0.0211134
0.026341
0.0334703
0.0417636
0.05473
0.0683422
0.0837748
0.102286
0.127221
0.162448
0.200795
0.245205
0.33899
0.413954
0.435567
0.358887
0.244474
0.164451
0.100725
0.0428811
-0.00749457
-0.0539242
-0.0996371
-0.144065
-0.189527
-0.236116
-0.284095
-0.335848
-0.390898
-0.450129
-0.514163
-0.584949
-0.66208
-0.743204
-0.838106
-0.948822
-1.07624
-1.23298
-1.43154
-1.71773
-2.1634
-2.86529
-3.22462
-1.18544
1.2226
1.27728
0.897808
0.630588
0.444818
0.314224
0.219319
0.150828
0.102118
0.0673146
0.0436309
0.0298104
0.0213898
0.0175747
0.0190775
0.0221536
0.027589
0.0343484
0.0427192
0.0554169
0.0695464
0.0851741
0.104148
0.130368
0.165876
0.206659
0.259306
0.347412
0.412306
0.439658
0.358674
0.239454
0.159495
0.09776
0.041113
-0.00937726
-0.0555143
-0.0998515
-0.144282
-0.190569
-0.236721
-0.28443
-0.336356
-0.391702
-0.451132
-0.514963
-0.585786
-0.663582
-0.745092
-0.840298
-0.949305
-1.07453
-1.2304
-1.42206
-1.69339
-2.1141
-2.82607
-3.40903
-1.37021
1.28596
1.31485
0.882516
0.610731
0.429975
0.30422
0.212777
0.146379
0.0982781
0.0646924
0.0423091
0.0291369
0.0207824
0.0167273
0.0182857
0.0219755
0.0279015
0.0342521
0.0423515
0.0548744
0.0690337
0.0846728
0.103378
0.129401
0.163776
0.203712
0.255594
0.344744
0.412567
0.437772
0.356787
0.236818
0.157547
0.0971573
0.0414542
-0.00932627
-0.0556822
-0.0997096
-0.144413
-0.190888
-0.236788
-0.285045
-0.336699
-0.391145
-0.450795
-0.514439
-0.584511
-0.66263
-0.745811
-0.839706
-0.945563
-1.06877
-1.22258
-1.415
-1.68645
-2.10335
-2.81392
-3.38762
-1.26519
1.31674
1.30684
0.878132
0.607825
0.426732
0.300379
0.209466
0.143911
0.0958015
0.0625802
0.0408924
0.0281858
0.0198398
0.0159206
0.0173695
0.021303
0.0276178
0.0341223
0.0421614
0.0539854
0.0683958
0.0844792
0.103731
0.130549
0.162833
0.202152
0.257892
0.348148
0.414042
0.436356
0.354272
0.234983
0.158296
0.0979387
0.0416927
-0.00842408
-0.0556418
-0.10051
-0.144629
-0.190359
-0.236811
-0.285124
-0.336475
-0.390597
-0.449128
-0.513638
-0.583761
-0.660633
-0.744407
-0.838081
-0.943098
-1.06608
-1.21654
-1.4087
-1.68064
-2.09275
-2.80349
-3.36156
-1.22444
1.31871
1.30212
0.874092
0.604409
0.423547
0.296981
0.206066
0.140741
0.094034
0.0616607
0.0395089
0.0263566
0.018364
0.0152078
0.0166668
0.0201772
0.0266944
0.0340437
0.041972
0.0531414
0.0680407
0.0840584
0.103593
0.131314
0.162825
0.201835
0.25871
0.348788
0.413216
0.43603
0.352956
0.234044
0.158893
0.0977659
0.0410467
-0.00786126
-0.0553505
-0.100963
-0.144318
-0.189456
-0.236814
-0.284171
-0.334939
-0.390035
-0.447912
-0.512919
-0.583149
-0.657869
-0.741661
-0.834696
-0.940624
-1.06427
-1.21161
-1.40218
-1.66997
-2.0811
-2.79609
-3.34114
-1.20337
1.3124
1.29804
0.870041
0.600339
0.41986
0.29419
0.203357
0.13786
0.0925899
0.0605034
0.0375917
0.0239987
0.0167026
0.0145273
0.015838
0.0189917
0.0255381
0.0335712
0.0416899
0.0525553
0.0675749
0.0839221
0.103655
0.130703
0.162255
0.202845
0.260072
0.348675
0.412684
0.436603
0.35312
0.234021
0.158327
0.096909
0.0409134
-0.00791447
-0.0554313
-0.100512
-0.143299
-0.188616
-0.236524
-0.282786
-0.332737
-0.388783
-0.447618
-0.512051
-0.580666
-0.65483
-0.739523
-0.832308
-0.937273
-1.0596
-1.20522
-1.39596
-1.66253
-2.07011
-2.78341
-3.30275
-1.1605
1.32353
1.29467
0.865866
0.595963
0.41595
0.290793
0.201096
0.136037
0.0904518
0.0580726
0.0352778
0.0219814
0.0154285
0.0135478
0.0144081
0.0178169
0.0244979
0.0327019
0.0413282
0.0523166
0.0665875
0.083366
0.104071
0.130118
0.160527
0.203245
0.262054
0.349157
0.413056
0.43648
0.353072
0.233876
0.157147
0.0962128
0.0422566
-0.00704005
-0.0553089
-0.0998154
-0.14249
-0.187993
-0.235558
-0.281596
-0.331277
-0.386975
-0.446399
-0.509639
-0.57721
-0.652732
-0.737863
-0.83001
-0.932757
-1.05345
-1.19865
-1.39087
-1.65682
-2.05695
-2.76299
-3.27613
-1.13773
1.32629
1.29065
0.861143
0.592288
0.412813
0.287434
0.198445
0.133481
0.0875011
0.0554261
0.0332141
0.0205202
0.014456
0.0121569
0.0124367
0.0161997
0.0233448
0.0316849
0.04095
0.0522437
0.0653625
0.0824028
0.104436
0.129632
0.159477
0.203837
0.26317
0.34923
0.412927
0.43633
0.352957
0.233684
0.156396
0.0954528
0.0432041
-0.00538955
-0.0547254
-0.0992166
-0.141779
-0.187162
-0.233801
-0.280481
-0.330469
-0.38502
-0.44391
-0.50624
-0.574426
-0.651046
-0.73498
-0.82579
-0.927564
-1.04778
-1.19427
-1.38642
-1.64948
-2.0383
-2.73939
-3.26221
-1.12509
1.32599
1.28597
0.854745
0.588232
0.409515
0.283712
0.194859
0.130592
0.0846837
0.0526862
0.0308707
0.019128
0.0134001
0.0105348
0.0104917
0.0145061
0.0220347
0.0301211
0.0394885
0.0516245
0.0651979
0.0826608
0.104317
0.127832
0.158979
0.205132
0.263282
0.349252
0.413297
0.437234
0.35341
0.233808
0.156584
0.0953835
0.0432486
-0.00441418
-0.0536534
-0.0984985
-0.140746
-0.185581
-0.231872
-0.279287
-0.329343
-0.382695
-0.440916
-0.503397
-0.572112
-0.647934
-0.730314
-0.820922
-0.922601
-1.04267
-1.18976
-1.38009
-1.63979
-2.02271
-2.71433
-3.23285
-1.10169
1.32959
1.28112
0.849268
0.583437
0.405763
0.279688
0.19097
0.127331
0.0817823
0.0501417
0.0285783
0.0172998
0.0117213
0.00838782
0.008491
0.0131833
0.0208695
0.0284638
0.0377009
0.0503584
0.0650361
0.0830714
0.103342
0.126217
0.159575
0.205488
0.260648
0.348664
0.416611
0.439057
0.354423
0.234044
0.156955
0.0958876
0.0429735
-0.00411898
-0.051571
-0.0969256
-0.140065
-0.184148
-0.229686
-0.277011
-0.327407
-0.380754
-0.438313
-0.500354
-0.56886
-0.643741
-0.725444
-0.816182
-0.91762
-1.03794
-1.18433
-1.36956
-1.62779
-2.01213
-2.69164
-3.18724
-1.06205
1.33821
1.27605
0.844837
0.578592
0.401064
0.276146
0.187058
0.122754
0.0780359
0.0477105
0.0265951
0.0149452
0.00911042
0.00573972
0.00660915
0.0119982
0.0194672
0.027101
0.03688
0.0490266
0.0635524
0.081924
0.101789
0.126055
0.161243
0.204559
0.255701
0.347431
0.421924
0.439959
0.354964
0.233607
0.157442
0.097858
0.0432974
-0.00457119
-0.0501246
-0.0948207
-0.138661
-0.182656
-0.227537
-0.274018
-0.324263
-0.37859
-0.435944
-0.497198
-0.565393
-0.639022
-0.720165
-0.8112
-0.912841
-1.0329
-1.17547
-1.35726
-1.616
-2.00019
-2.66986
-3.14665
-1.03194
1.33889
1.26975
0.83908
0.57174
0.395564
0.272304
0.182681
0.118162
0.0744689
0.044875
0.0240383
0.0118728
0.00590532
0.00336923
0.00512619
0.0104884
0.0174996
0.0253074
0.0358043
0.0481976
0.0622883
0.0798819
0.100375
0.126732
0.162009
0.202244
0.25254
0.348192
0.425367
0.44
0.355017
0.232627
0.158151
0.101267
0.0445403
-0.00508051
-0.0495814
-0.0930422
-0.136247
-0.18051
-0.225483
-0.271754
-0.321079
-0.375137
-0.432377
-0.494164
-0.562397
-0.634032
-0.714081
-0.805794
-0.907719
-1.02619
-1.16398
-1.34675
-1.60528
-1.98371
-2.64631
-3.09507
-0.980529
1.35021
1.26326
0.831415
0.565062
0.390164
0.267518
0.177897
0.113898
0.0709173
0.0414371
0.0206687
0.00820186
0.00256941
0.00117379
0.00339302
0.00832379
0.0154119
0.023729
0.033924
0.0466964
0.0616568
0.078592
0.0994312
0.127308
0.161465
0.198593
0.251108
0.350634
0.426751
0.440165
0.35529
0.23235
0.158754
0.10352
0.045842
-0.00460452
-0.0486339
-0.0917197
-0.134363
-0.177893
-0.222581
-0.269263
-0.318155
-0.371534
-0.428288
-0.489664
-0.557984
-0.629316
-0.708155
-0.798955
-0.901097
-1.0181
-1.15302
-1.3366
-1.5925
-1.96377
-2.61916
-3.04864
-0.941465
1.35492
1.25644
0.823724
0.558338
0.384449
0.261237
0.172651
0.10969
0.0666999
0.0373783
0.0167645
0.00453392
-0.000618452
-0.00162918
0.00108267
0.00594718
0.0130022
0.0222252
0.0321309
0.0443214
0.0605208
0.0781614
0.0987427
0.127095
0.160852
0.196343
0.250353
0.351861
0.426898
0.440141
0.355424
0.232405
0.158425
0.103802
0.0475593
-0.00252032
-0.0466491
-0.0899779
-0.132744
-0.175262
-0.219683
-0.266314
-0.314351
-0.367223
-0.424291
-0.484682
-0.551837
-0.624598
-0.703023
-0.791113
-0.89262
-1.00899
-1.14335
-1.32453
-1.57575
-1.94231
-2.58695
-3.00236
-0.901791
1.36178
1.24868
0.815723
0.551426
0.377696
0.253592
0.166668
0.105167
0.0616125
0.0325602
0.0128515
0.00117811
-0.00391265
-0.00493712
-0.00167239
0.00346987
0.0101893
0.0197199
0.0303329
0.0425542
0.0586257
0.0771547
0.0983218
0.126495
0.160258
0.195724
0.250108
0.351843
0.426496
0.439511
0.355072
0.232345
0.157278
0.103351
0.0500951
0.000677698
-0.0439894
-0.0873783
-0.130555
-0.173085
-0.216993
-0.262869
-0.310198
-0.362125
-0.419383
-0.479776
-0.544928
-0.618394
-0.697849
-0.783523
-0.882719
-0.997625
-1.13344
-1.31172
-1.55671
-1.91843
-2.55118
-2.95411
-0.862016
1.36855
1.23943
0.806737
0.543093
0.369779
0.246434
0.160405
0.0996591
0.0556053
0.0271351
0.00919507
-0.00227681
-0.00807663
-0.00853952
-0.00469302
0.000599679
0.00728109
0.0166275
0.0282201
0.0414104
0.0562651
0.0747586
0.0979083
0.126327
0.159391
0.195177
0.249912
0.351521
0.426216
0.436991
0.355143
0.235205
0.157873
0.103062
0.0521648
0.00308761
-0.0420773
-0.0850128
-0.127523
-0.170003
-0.213292
-0.258575
-0.305961
-0.357348
-0.413679
-0.473757
-0.538264
-0.610927
-0.690508
-0.775758
-0.872199
-0.984567
-1.12136
-1.29726
-1.53653
-1.89324
-2.51276
-2.89664
-0.815374
1.37435
1.22842
0.794736
0.532694
0.360253
0.23918
0.153942
0.0933085
0.0493533
0.0214931
0.00479228
-0.00657109
-0.0128427
-0.0127195
-0.00835713
-0.00265433
0.00425561
0.013669
0.0260047
0.0397778
0.0539791
0.0720057
0.0971138
0.126065
0.157206
0.194137
0.250429
0.351104
0.425359
0.433011
0.355854
0.240777
0.160306
0.103113
0.0536413
0.00479521
-0.0404476
-0.0829402
-0.124277
-0.165757
-0.208753
-0.253971
-0.300893
-0.351718
-0.40741
-0.466772
-0.531838
-0.602923
-0.680386
-0.766216
-0.861252
-0.971987
-1.10724
-1.27953
-1.51517
-1.86652
-2.47091
-2.82359
-0.747263
1.38811
1.21656
0.782384
0.521777
0.349674
0.231039
0.14712
0.0863221
0.0429242
0.015482
-0.00104171
-0.01205
-0.017383
-0.0166943
-0.0126053
-0.00679211
0.000855029
0.0107927
0.0231971
0.0371744
0.0523505
0.0705246
0.0953194
0.123693
0.153885
0.193388
0.251775
0.350777
0.424071
0.430673
0.356089
0.243842
0.161935
0.103796
0.0551076
0.00623975
-0.038435
-0.0798948
-0.12061
-0.161564
-0.20401
-0.248324
-0.29468
-0.345644
-0.400672
-0.45879
-0.523779
-0.594029
-0.669362
-0.754567
-0.8489
-0.958821
-1.09145
-1.25961
-1.49345
-1.8348
-2.42129
-2.75636
-0.696563
1.39181
1.20329
0.769263
0.510205
0.338818
0.221365
0.138444
0.078122
0.0360131
0.00898178
-0.00784893
-0.018304
-0.022125
-0.0206934
-0.0170211
-0.0114237
-0.00315359
0.00721101
0.0198395
0.0344102
0.0505831
0.0693409
0.0924284
0.119737
0.151926
0.193829
0.252587
0.350474
0.423373
0.43045
0.355912
0.244395
0.162844
0.104613
0.0559411
0.0076334
-0.0354736
-0.0756877
-0.116096
-0.156995
-0.198742
-0.241867
-0.288167
-0.339332
-0.393027
-0.449572
-0.513117
-0.583214
-0.658475
-0.741706
-0.834789
-0.944175
-1.07367
-1.2378
-1.46984
-1.79981
-2.36361
-2.67396
-0.628049
1.40225
1.1894
0.754696
0.4966
0.326628
0.20996
0.127876
0.069272
0.0284951
0.0014997
-0.0149838
-0.0246957
-0.0280382
-0.0260807
-0.0217471
-0.0158799
-0.00768245
0.00308096
0.0163832
0.0310776
0.0475215
0.0675299
0.0902036
0.116769
0.150861
0.19389
0.252271
0.350128
0.423235
0.429882
0.354733
0.24479
0.165216
0.105378
0.0563024
0.0105916
-0.0313899
-0.0718842
-0.111664
-0.151408
-0.19207
-0.235232
-0.281574
-0.331138
-0.383508
-0.439553
-0.501587
-0.570494
-0.646018
-0.727359
-0.818245
-0.927554
-1.05361
-1.21271
-1.44141
-1.76102
-2.30446
-2.58377
-0.553398
1.41103
1.17272
0.737889
0.48141
0.312982
0.197099
0.116474
0.0601828
0.0193953
-0.00765228
-0.0225276
-0.0315034
-0.0350448
-0.0327592
-0.0274257
-0.0208627
-0.0123393
-0.00108575
0.0122777
0.0270242
0.0441285
0.0648104
0.0881341
0.115047
0.149321
0.192863
0.251333
0.349385
0.4227
0.428413
0.352395
0.245149
0.16898
0.106601
0.0570789
0.0144818
-0.0275968
-0.0682888
-0.106558
-0.145221
-0.184916
-0.227725
-0.273392
-0.320725
-0.371951
-0.428063
-0.489452
-0.556701
-0.630668
-0.710799
-0.799512
-0.906715
-1.03142
-1.18693
-1.40602
-1.71632
-2.24444
-2.48565
-0.472057
1.41729
1.15173
0.717648
0.464057
0.298228
0.183534
0.104109
0.0492598
0.00864976
-0.0172274
-0.0309628
-0.0396403
-0.0422744
-0.0400626
-0.0347147
-0.0267065
-0.0169268
-0.0054993
0.00740231
0.0225339
0.0404773
0.0606994
0.0845469
0.113268
0.148015
0.191519
0.249972
0.34821
0.421836
0.427473
0.350827
0.245
0.170625
0.107847
0.0591654
0.0176942
-0.0239068
-0.0630891
-0.10033
-0.138874
-0.177946
-0.218818
-0.262563
-0.308661
-0.35915
-0.414024
-0.47448
-0.540785
-0.612799
-0.69219
-0.779157
-0.882223
-1.00612
-1.15847
-1.36404
-1.66525
-2.17725
-2.37056
-0.372586
1.42961
1.12883
0.694017
0.443626
0.28092
0.168389
0.0904055
0.0359459
-0.00341421
-0.0274213
-0.0407726
-0.0487228
-0.0499996
-0.0481115
-0.0428119
-0.0331414
-0.0223396
-0.0109671
0.00146114
0.0169173
0.0359005
0.0559416
0.0800163
0.111004
0.146807
0.189906
0.248383
0.347062
0.42105
0.426231
0.349553
0.2436
0.170045
0.110152
0.0625675
0.019933
-0.0200868
-0.056987
-0.093242
-0.131019
-0.169437
-0.208375
-0.249564
-0.294796
-0.344832
-0.397835
-0.456557
-0.521675
-0.591908
-0.66987
-0.756055
-0.85559
-0.975418
-1.12289
-1.31967
-1.60964
-2.09625
-2.2475
-0.272356
1.44328
1.10241
0.667706
0.42096
0.260832
0.150498
0.0750189
0.0208544
-0.0171032
-0.0392132
-0.0516448
-0.0585807
-0.0593549
-0.0566126
-0.050376
-0.0406513
-0.0298838
-0.0180819
-0.00553542
0.0105849
0.0303792
0.0507469
0.0752497
0.106925
0.144147
0.188011
0.246536
0.345693
0.419858
0.423677
0.347105
0.240869
0.169316
0.112912
0.0649862
0.0219818
-0.0153191
-0.0502588
-0.0857793
-0.121746
-0.158129
-0.195619
-0.235148
-0.278949
-0.327436
-0.378835
-0.435884
-0.498784
-0.566693
-0.642098
-0.727035
-0.824622
-0.939021
-1.08087
-1.27297
-1.5508
-1.99876
-2.10477
-0.164725
1.44805
1.06989
0.637562
0.393408
0.237021
0.12988
0.0563583
0.0034631
-0.0320841
-0.0523291
-0.0639999
-0.0701223
-0.0699925
-0.0653309
-0.0583129
-0.0497612
-0.0392994
-0.0265422
-0.0133645
0.00311855
0.0229929
0.044569
0.0692343
0.100026
0.139711
0.185569
0.243789
0.343266
0.417846
0.420058
0.343427
0.237426
0.167653
0.113118
0.0658046
0.0252882
-0.00925777
-0.0432635
-0.0781118
-0.111242
-0.144006
-0.179978
-0.218833
-0.260932
-0.306263
-0.355401
-0.410303
-0.47074
-0.536773
-0.609384
-0.691207
-0.785437
-0.895755
-1.03219
-1.21685
-1.48035
-1.888
-1.92846
-0.0300677
1.45084
1.02888
0.601686
0.361843
0.208914
0.105069
0.0339964
-0.0159302
-0.0484295
-0.0675724
-0.0780753
-0.0822456
-0.0811046
-0.0754581
-0.0679293
-0.0598193
-0.0496808
-0.0368706
-0.0232909
-0.00682127
0.0132479
0.0356776
0.0606571
0.0916948
0.132543
0.180455
0.239938
0.339578
0.414989
0.415024
0.337522
0.232452
0.163443
0.1105
0.0666294
0.0295682
-0.00317297
-0.0355874
-0.0678604
-0.098096
-0.128158
-0.162183
-0.199344
-0.238272
-0.280196
-0.326685
-0.37849
-0.435839
-0.499216
-0.569095
-0.647341
-0.736738
-0.842923
-0.972795
-1.14529
-1.39255
-1.76091
-1.73285
0.113384
1.44456
0.976803
0.55683
0.322167
0.173934
0.0748197
0.00770486
-0.0378784
-0.0671392
-0.0844936
-0.0926737
-0.0943421
-0.0927452
-0.0871744
-0.0791537
-0.0710223
-0.0615056
-0.0495622
-0.0362699
-0.0199446
-0.000355062
0.021444
0.0483672
0.0813468
0.120968
0.171423
0.234663
0.334665
0.410961
0.42185
0.332663
0.229737
0.15976
0.109273
0.0705516
0.0368758
0.00622252
-0.0238903
-0.0535555
-0.0815007
-0.109541
-0.140862
-0.175026
-0.209901
-0.248425
-0.291492
-0.339093
-0.392754
-0.450641
-0.515333
-0.590117
-0.674732
-0.775005
-0.896494
-1.05527
-1.28108
-1.60461
-1.49707
0.284492
1.43127
0.909577
0.49597
0.270616
0.128585
0.0365818
-0.0235863
-0.0632855
-0.0878565
-0.101418
-0.107073
-0.107124
-0.104757
-0.0997139
-0.0919694
-0.0837969
-0.075208
-0.0650792
-0.0532074
-0.0386269
-0.021326
-0.000484758
0.0280442
0.0640321
0.106682
0.162191
0.232831
0.339903
0.426917
0.233667
0.182594
0.127564
0.0886356
0.0575746
0.0313246
0.0054663
-0.0187947
-0.0424079
-0.0655225
-0.0873742
-0.109453
-0.134205
-0.161389
-0.189392
-0.221168
-0.255985
-0.294914
-0.339751
-0.386739
-0.439681
-0.503097
-0.574688
-0.66001
-0.765857
-0.905403
-1.09437
-1.31787
-1.08156
0.452794
1.30516
0.797466
0.400882
0.188556
0.0614228
-0.0165982
-0.0643243
-0.0953536
-0.114659
-0.124156
-0.127911
-0.128134
-0.126498
-0.123163
-0.117637
-0.111899
-0.107218
-0.102587
-0.0968328
-0.0904811
-0.0840454
-0.076067
-0.0645919
-0.046752
-0.0212141
0.0194429
0.0936769
0.220855
0.318747
-0.11328
-0.0994174
-0.0701255
-0.0451559
-0.04138
-0.0478164
-0.0624704
-0.0767493
-0.0896726
-0.101958
-0.113859
-0.126155
-0.141322
-0.158637
-0.176313
-0.198653
-0.221747
-0.247993
-0.280703
-0.312214
-0.347554
-0.392659
-0.441557
-0.500224
-0.576644
-0.685014
-0.843967
-1.14395
-0.993879
0.790967
1.54154
0.615003
0.191846
0.0364616
-0.0463017
-0.093613
-0.118396
-0.137089
-0.150128
-0.154295
-0.15551
-0.156417
-0.156927
-0.155994
-0.153157
-0.151788
-0.153477
-0.157073
-0.160496
-0.166452
-0.177546
-0.19318
-0.214864
-0.234526
-0.251425
-0.256617
-0.201971
-0.0356324
0.0923361
-18.5812
-10.2451
-0.410124
-1.15098
-0.85781
-0.633963
-0.502703
-0.408914
-0.337024
-0.289543
-0.260912
-0.24086
-0.230768
-0.225967
-0.228006
-0.23731
-0.248904
-0.267414
-0.288981
-0.311847
-0.340827
-0.373879
-0.408884
-0.446477
-0.493397
-0.56619
-0.655577
-0.86889
-0.478291
0.242415
-29.6734
-19.0459
-7.19155
-4.30512
-2.73997
-1.88393
-1.38402
-1.06363
-0.846759
-0.701821
-0.59709
-0.519737
-0.463528
-0.422948
-0.396064
-0.378731
-0.368405
-0.365581
-0.367799
-0.373605
-0.384423
-0.399041
-0.416341
-0.437699
-0.467795
-0.513963
-0.572058
-0.66316
-0.383676
0.26665
-37.2964
-23.0781
-9.71542
-5.61548
-3.65682
-2.59049
-1.91616
-1.47102
-1.17246
-0.968024
-0.817055
-0.703955
-0.621145
-0.559183
-0.514016
-0.480202
-0.455034
-0.43852
-0.427862
-0.421494
-0.420007
-0.422141
-0.427045
-0.435346
-0.449582
-0.473986
-0.509712
-0.595713
-0.308209
0.337662
-27.8227
-20.4531
-10.5387
-6.14959
-4.02603
-2.81555
-2.06343
-1.58501
-1.26527
-1.04196
-0.879294
-0.76024
-0.673061
-0.606414
-0.556153
-0.518144