TITLE = "AGPS 3D Finite Element Data"
VARIABLES = "x", "y", "z", "cp1", "cp2", "cp3"
ZONE T="MIXED", N=2415, E=2312, DATAPACKING=BLOCK, ZONETYPE=FEQUADRILATERAL
80.0 79.8307 79.3243 78.4848 77.319 75.8364 74.049 71.9715 69.6211 67.0171 64.1813 61.1374 57.9109 54.5291 51.0207 47.4155 43.7445 40.0392 36.3314 32.6535 29.0172 25.4698 22.0479 18.7823 15.7026 12.8366 10.2099 7.8458 5.7646 3.9842 2.5191 1.381 0.5786 0.1174 0.0 0.2238 0.7835 1.6729 2.8831 4.4028 6.218 8.3129 10.6693 13.2677 16.0866 19.1031 22.2931 25.6308 29.0898 32.6465 36.2871 39.9608 43.6369 47.2844 50.8724 54.3702 57.7482 60.9772 64.0295 66.8785 69.4996 71.8698 73.9684 75.7767 77.2788 78.4613 79.3135 79.828 80.0 80.0 79.8307 79.3243 78.4848 77.319 75.8364 74.049 71.9715 69.6211 67.0171 64.1813 61.1374 57.9109 54.5291 51.0207 47.4155 43.7445 40.0392 36.3314 32.6535 29.0172 25.4698 22.0479 18.7823 15.7026 12.8366 10.2099 7.8458 5.7646 3.9842 2.5191 1.381 0.5786 0.1174 0.0 0.2238 0.7835 1.6729 2.8831 4.4028 6.218 8.3129 10.6693 13.2677 16.0866 19.1031 22.2931 25.6308 29.0898 32.6465 36.2871 39.9608 43.6369 47.2844 50.8724 54.3702 57.7482 60.9772 64.0295 66.8785 69.4996 71.8698 73.9684 75.7767 77.2788 78.4613 79.3135 79.828 80.0 80.0 79.8307 79.3243 78.4848 77.319 75.8364 74.049 71.9715 69.6211 67.0171 64.1813 61.1374 57.9109 54.5291 51.0207 47.4155 43.7445 40.0392 36.3314 32.6535 29.0172 25.4698 22.0479 18.7823 15.7026 12.8366 10.2099 7.8458 5.7646 3.9842 2.5191 1.381 0.5786 0.1174 0.0 0.2238 0.7835 1.6729 2.8831 4.4028 6.218 8.3129 10.6693 13.2677 16.0866 19.1031 22.2931 25.6308 29.0898 32.6465 36.2871 39.9608 43.6369 47.2844 50.8724 54.3702 57.7482 60.9772 64.0295 66.8785 69.4996 71.8698 73.9684 75.7767 77.2788 78.4613 79.3135 79.828 80.0 80.0 79.8307 79.3243 78.4848 77.319 75.8364 74.049 71.9715 69.6211 67.0171 64.1813 61.1374 57.9109 54.5291 51.0207 47.4155 43.7445 40.0392 36.3314 32.6535 29.0172 25.4698 22.0479 18.7823 15.7026 12.8366 10.2099 7.8458 5.7646 3.9842 2.5191 1.381 0.5786 0.1174 0.0 0.2238 0.7835 1.6729 2.8831 4.4028 6.218 8.3129 10.6693 13.2677 16.0866 19.1031 22.2931 25.6308 29.0898 32.6465 36.2871 39.9608 43.6369 47.2844 50.8724 54.3702 57.7482 60.9772 64.0295 66.8785 69.4996 71.8698 73.9684 75.7767 77.2788 78.4613 79.3135 79.828 80.0 80.0 79.8307 79.3243 78.4848 77.319 75.8364 74.049 71.9715 69.6211 67.0171 64.1813 61.1374 57.9109 54.5291 51.0207 47.4155 43.7445 40.0392 36.3314 32.6535 29.0172 25.4698 22.0479 18.7823 15.7026 12.8366 10.2099 7.8458 5.7646 3.9842 2.5191 1.381 0.5786 0.1174 0.0 0.2238 0.7835 1.6729 2.8831 4.4028 6.218 8.3129 10.6693 13.2677 16.0866 19.1031 22.2931 25.6308 29.0898 32.6465 36.2871 39.9608 43.6369 47.2844 50.8724 54.3702 57.7482 60.9772 64.0295 66.8785 69.4996 71.8698 73.9684 75.7767 77.2788 78.4613 79.3135 79.828 80.0 80.0 79.8307 79.3243 78.4848 77.319 75.8364 74.049 71.9715 69.6211 67.0171 64.1813 61.1374 57.9109 54.5291 51.0207 47.4155 43.7445 40.0392 36.3314 32.6535 29.0172 25.4698 22.0479 18.7823 15.7026 12.8366 10.2099 7.8458 5.7646 3.9842 2.5191 1.381 0.5786 0.1174 0.0 0.2238 0.7835 1.6729 2.8831 4.4028 6.218 8.3129 10.6693 13.2677 16.0866 19.1031 22.2931 25.6308 29.0898 32.6465 36.2871 39.9608 43.6369 47.2844 50.8724 54.3702 57.7482 60.9772 64.0295 66.8785 69.4996 71.8698 73.9684 75.7767 77.2788 78.4613 79.3135 79.828 80.0 80.0 79.8307 79.3243 78.4848 77.319 75.8364 74.049 71.9715 69.6211 67.0171 64.1813 61.1374 57.9109 54.5291 51.0207 47.4155 43.7445 40.0392 36.3314 32.6535 29.0172 25.4698 22.0479 18.7823 15.7026 12.8366 10.2099 7.8458 5.7646 3.9842 2.5191 1.381 0.5786 0.1174 0.0 0.2238 0.7835 1.6729 2.8831 4.4028 6.218 8.3129 10.6693 13.2677 16.0866 19.1031 22.2931 25.6308 29.0898 32.6465 36.2871 39.9608 43.6369 47.2844 50.8724 54.3702 57.7482 60.9772 64.0295 66.8785 69.4996 71.8698 73.9684 75.7767 77.2788 78.4613 79.3135 79.828 80.0 80.0 79.8307 79.3243 78.4848 77.319 75.8364 74.049 71.9715 69.6211 67.0171 64.1813 61.1374 57.9109 54.5291 51.0207 47.4155 43.7445 40.0392 36.3314 32.6535 29.0172 25.4698 22.0479 18.7823 15.7026 12.8366 10.2099 7.8458 5.7646 3.9842 2.5191 1.381 0.5786 0.1174 0.0 0.2238 0.7835 1.6729 2.8831 4.4028 6.218 8.3129 10.6693 13.2677 16.0866 19.1031 22.2931 25.6308 29.0898 32.6465 36.2871 39.9608 43.6369 47.2844 50.8724 54.3702 57.7482 60.9772 64.0295 66.8785 69.4996 71.8698 73.9684 75.7767 77.2788 78.4613 79.3135 79.828 80.0 80.0 79.8307 79.3243 78.4848 77.319 75.8364 74.049 71.9715 69.6211 67.0171 64.1813 61.1374 57.9109 54.5291 51.0207 47.4155 43.7445 40.0392 36.3314 32.6535 29.0172 25.4698 22.0479 18.7823 15.7026 12.8366 10.2099 7.8458 5.7646 3.9842 2.5191 1.381 0.5786 0.1174 0.0 0.2238 0.7835 1.6729 2.8831 4.4028 6.218 8.3129 10.6693 13.2677 16.0866 19.1031 22.2931 25.6308 29.0898 32.6465 36.2871 39.9608 43.6369 47.2844 50.8724 54.3702 57.7482 60.9772 64.0295 66.8785 69.4996 71.8698 73.9684 75.7767 77.2788 78.4613 79.3135 79.828 80.0 80.0 79.8307 79.3243 78.4848 77.319 75.8364 74.049 71.9715 69.6211 67.0171 64.1813 61.1374 57.9109 54.5291 51.0207 47.4155 43.7445 40.0392 36.3314 32.6535 29.0172 25.4698 22.0479 18.7823 15.7026 12.8366 10.2099 7.8458 5.7646 3.9842 2.5191 1.381 0.5786 0.1174 0.0 0.2238 0.7835 1.6729 2.8831 4.4028 6.218 8.3129 10.6693 13.2677 16.0866 19.1031 22.2931 25.6308 29.0898 32.6465 36.2871 39.9608 43.6369 47.2844 50.8724 54.3702 57.7482 60.9772 64.0295 66.8785 69.4996 71.8698 73.9684 75.7767 77.2788 78.4613 79.3135 79.828 80.0 80.0 79.8307 79.3243 78.4848 77.319 75.8364 74.049 71.9715 69.6211 67.0171 64.1813 61.1374 57.9109 54.5291 51.0207 47.4155 43.7445 40.0392 36.3314 32.6535 29.0172 25.4698 22.0479 18.7823 15.7026 12.8366 10.2099 7.8458 5.7646 3.9842 2.5191 1.381 0.5786 0.1174 0.0 0.2238 0.7835 1.6729 2.8831 4.4028 6.218 8.3129 10.6693 13.2677 16.0866 19.1031 22.2931 25.6308 29.0898 32.6465 36.2871 39.9608 43.6369 47.2844 50.8724 54.3702 57.7482 60.9772 64.0295 66.8785 69.4996 71.8698 73.9684 75.7767 77.2788 78.4613 79.3135 79.828 80.0 80.0 79.8307 79.3243 78.4848 77.319 75.8364 74.049 71.9715 69.6211 67.0171 64.1813 61.1374 57.9109 54.5291 51.0207 47.4155 43.7445 40.0392 36.3314 32.6535 29.0172 25.4698 22.0479 18.7823 15.7026 12.8366 10.2099 7.8458 5.7646 3.9842 2.5191 1.381 0.5786 0.1174 0.0 0.2238 0.7835 1.6729 2.8831 4.4028 6.218 8.3129 10.6693 13.2677 16.0866 19.1031 22.2931 25.6308 29.0898 32.6465 36.2871 39.9608 43.6369 47.2844 50.8724 54.3702 57.7482 60.9772 64.0295 66.8785 69.4996 71.8698 73.9684 75.7767 77.2788 78.4613 79.3135 79.828 80.0 80.0 79.8307 79.3243 78.4848 77.319 75.8364 74.049 71.9715 69.6211 67.0171 64.1813 61.1374 57.9109 54.5291 51.0207 47.4155 43.7445 40.0392 36.3314 32.6535 29.0172 25.4698 22.0479 18.7823 15.7026 12.8366 10.2099 7.8458 5.7646 3.9842 2.5191 1.381 0.5786 0.1174 0.0 0.2238 0.7835 1.6729 2.8831 4.4028 6.218 8.3129 10.6693 13.2677 16.0866 19.1031 22.2931 25.6308 29.0898 32.6465 36.2871 39.9608 43.6369 47.2844 50.8724 54.3702 57.7482 60.9772 64.0295 66.8785 69.4996 71.8698 73.9684 75.7767 77.2788 78.4613 79.3135 79.828 80.0 80.0 79.8307 79.3243 78.4848 77.319 75.8364 74.049 71.9715 69.6211 67.0171 64.1813 61.1374 57.9109 54.5291 51.0207 47.4155 43.7445 40.0392 36.3314 32.6535 29.0172 25.4698 22.0479 18.7823 15.7026 12.8366 10.2099 7.8458 5.7646 3.9842 2.5191 1.381 0.5786 0.1174 0.0 0.2238 0.7835 1.6729 2.8831 4.4028 6.218 8.3129 10.6693 13.2677 16.0866 19.1031 22.2931 25.6308 29.0898 32.6465 36.2871 39.9608 43.6369 47.2844 50.8724 54.3702 57.7482 60.9772 64.0295 66.8785 69.4996 71.8698 73.9684 75.7767 77.2788 78.4613 79.3135 79.828 80.0 80.0 79.8307 79.3243 78.4848 77.319 75.8364 74.049 71.9715 69.6211 67.0171 64.1813 61.1374 57.9109 54.5291 51.0207 47.4155 43.7445 40.0392 36.3314 32.6535 29.0172 25.4698 22.0479 18.7823 15.7026 12.8366 10.2099 7.8458 5.7646 3.9842 2.5191 1.381 0.5786 0.1174 0.0 0.2238 0.7835 1.6729 2.8831 4.4028 6.218 8.3129 10.6693 13.2677 16.0866 19.1031 22.2931 25.6308 29.0898 32.6465 36.2871 39.9608 43.6369 47.2844 50.8724 54.3702 57.7482 60.9772 64.0295 66.8785 69.4996 71.8698 73.9684 75.7767 77.2788 78.4613 79.3135 79.828 80.0 80.0 79.8307 79.3243 78.4848 77.319 75.8364 74.049 71.9715 69.6211 67.0171 64.1813 61.1374 57.9109 54.5291 51.0207 47.4155 43.7445 40.0392 36.3314 32.6535 29.0172 25.4698 22.0479 18.7823 15.7026 12.8366 10.2099 7.8458 5.7646 3.9842 2.5191 1.381 0.5786 0.1174 0.0 0.2238 0.7835 1.6729 2.8831 4.4028 6.218 8.3129 10.6693 13.2677 16.0866 19.1031 22.2931 25.6308 29.0898 32.6465 36.2871 39.9608 43.6369 47.2844 50.8724 54.3702 57.7482 60.9772 64.0295 66.8785 69.4996 71.8698 73.9684 75.7767 77.2788 78.4613 79.3135 79.828 80.0 80.0 79.8307 79.3243 78.4848 77.319 75.8364 74.049 71.9715 69.6211 67.0171 64.1813 61.1374 57.9109 54.5291 51.0207 47.4155 43.7445 40.0392 36.3314 32.6535 29.0172 25.4698 22.0479 18.7823 15.7026 12.8366 10.2099 7.8458 5.7646 3.9842 2.5191 1.381 0.5786 0.1174 0.0 0.2238 0.7835 1.6729 2.8831 4.4028 6.218 8.3129 10.6693 13.2677 16.0866 19.1031 22.2931 25.6308 29.0898 32.6465 36.2871 39.9608 43.6369 47.2844 50.8724 54.3702 57.7482 60.9772 64.0295 66.8785 69.4996 71.8698 73.9684 75.7767 77.2788 78.4613 79.3135 79.828 80.0 80.0 79.8307 79.3243 78.4848 77.319 75.8364 74.049 71.9715 69.6211 67.0171 64.1813 61.1374 57.9109 54.5291 51.0207 47.4155 43.7445 40.0392 36.3314 32.6535 29.0172 25.4698 22.0479 18.7823 15.7026 12.8366 10.2099 7.8458 5.7646 3.9842 2.5191 1.381 0.5786 0.1174 0.0 0.2238 0.7835 1.6729 2.8831 4.4028 6.218 8.3129 10.6693 13.2677 16.0866 19.1031 22.2931 25.6308 29.0898 32.6465 36.2871 39.9608 43.6369 47.2844 50.8724 54.3702 57.7482 60.9772 64.0295 66.8785 69.4996 71.8698 73.9684 75.7767 77.2788 78.4613 79.3135 79.828 80.0 80.0 79.8307 79.3243 78.4848 77.319 75.8364 74.049 71.9715 69.6211 67.0171 64.1813 61.1374 57.9109 54.5291 51.0207 47.4155 43.7445 40.0392 36.3314 32.6535 29.0172 25.4698 22.0479 18.7823 15.7026 12.8366 10.2099 7.8458 5.7646 3.9842 2.5191 1.381 0.5786 0.1174 0.0 0.2238 0.7835 1.6729 2.8831 4.4028 6.218 8.3129 10.6693 13.2677 16.0866 19.1031 22.2931 25.6308 29.0898 32.6465 36.2871 39.9608 43.6369 47.2844 50.8724 54.3702 57.7482 60.9772 64.0295 66.8785 69.4996 71.8698 73.9684 75.7767 77.2788 78.4613 79.3135 79.828 80.0 80.0 79.8307 79.3243 78.4848 77.319 75.8364 74.049 71.9715 69.6211 67.0171 64.1813 61.1374 57.9109 54.5291 51.0207 47.4155 43.7445 40.0392 36.3314 32.6535 29.0172 25.4698 22.0479 18.7823 15.7026 12.8366 10.2099 7.8458 5.7646 3.9842 2.5191 1.381 0.5786 0.1174 0.0 0.2238 0.7835 1.6729 2.8831 4.4028 6.218 8.3129 10.6693 13.2677 16.0866 19.1031 22.2931 25.6308 29.0898 32.6465 36.2871 39.9608 43.6369 47.2844 50.8724 54.3702 57.7482 60.9772 64.0295 66.8785 69.4996 71.8698 73.9684 75.7767 77.2788 78.4613 79.3135 79.828 80.0 80.0 79.8307 79.3243 78.4848 77.319 75.8364 74.049 71.9715 69.6211 67.0171 64.1813 61.1374 57.9109 54.5291 51.0207 47.4155 43.7445 40.0392 36.3314 32.6535 29.0172 25.4698 22.0479 18.7823 15.7026 12.8366 10.2099 7.8458 5.7646 3.9842 2.5191 1.381 0.5786 0.1174 0.0 0.2238 0.7835 1.6729 2.8831 4.4028 6.218 8.3129 10.6693 13.2677 16.0866 19.1031 22.2931 25.6308 29.0898 32.6465 36.2871 39.9608 43.6369 47.2844 50.8724 54.3702 57.7482 60.9772 64.0295 66.8785 69.4996 71.8698 73.9684 75.7767 77.2788 78.4613 79.3135 79.828 80.0 80.0 79.8307 79.3243 78.4848 77.319 75.8364 74.049 71.9715 69.6211 67.0171 64.1813 61.1374 57.9109 54.5291 51.0207 47.4155 43.7445 40.0392 36.3314 32.6535 29.0172 25.4698 22.0479 18.7823 15.7026 12.8366 10.2099 7.8458 5.7646 3.9842 2.5191 1.381 0.5786 0.1174 0.0 0.2238 0.7835 1.6729 2.8831 4.4028 6.218 8.3129 10.6693 13.2677 16.0866 19.1031 22.2931 25.6308 29.0898 32.6465 36.2871 39.9608 43.6369 47.2844 50.8724 54.3702 57.7482 60.9772 64.0295 66.8785 69.4996 71.8698 73.9684 75.7767 77.2788 78.4613 79.3135 79.828 80.0 80.0 79.8307 79.3243 78.4848 77.319 75.8364 74.049 71.9715 69.6211 67.0171 64.1813 61.1374 57.9109 54.5291 51.0207 47.4155 43.7445 40.0392 36.3314 32.6535 29.0172 25.4698 22.0479 18.7823 15.7026 12.8366 10.2099 7.8458 5.7646 3.9842 2.5191 1.381 0.5786 0.1174 0.0 0.2238 0.7835 1.6729 2.8831 4.4028 6.218 8.3129 10.6693 13.2677 16.0866 19.1031 22.2931 25.6308 29.0898 32.6465 36.2871 39.9608 43.6369 47.2844 50.8724 54.3702 57.7482 60.9772 64.0295 66.8785 69.4996 71.8698 73.9684 75.7767 77.2788 78.4613 79.3135 79.828 80.0 80.0 79.8307 79.3243 78.4848 77.319 75.8364 74.049 71.9715 69.6211 67.0171 64.1813 61.1374 57.9109 54.5291 51.0207 47.4155 43.7445 40.0392 36.3314 32.6535 29.0172 25.4698 22.0479 18.7823 15.7026 12.8366 10.2099 7.8458 5.7646 3.9842 2.5191 1.381 0.5786 0.1174 0.0 0.2238 0.7835 1.6729 2.8831 4.4028 6.218 8.3129 10.6693 13.2677 16.0866 19.1031 22.2931 25.6308 29.0898 32.6465 36.2871 39.9608 43.6369 47.2844 50.8724 54.3702 57.7482 60.9772 64.0295 66.8785 69.4996 71.8698 73.9684 75.7767 77.2788 78.4613 79.3135 79.828 80.0 80.0 79.8307 79.3243 78.4848 77.319 75.8364 74.049 71.9715 69.6211 67.0171 64.1813 61.1374 57.9109 54.5291 51.0207 47.4155 43.7445 40.0392 36.3314 32.6535 29.0172 25.4698 22.0479 18.7823 15.7026 12.8366 10.2099 7.8458 5.7646 3.9842 2.5191 1.381 0.5786 0.1174 0.0 0.2238 0.7835 1.6729 2.8831 4.4028 6.218 8.3129 10.6693 13.2677 16.0866 19.1031 22.2931 25.6308 29.0898 32.6465 36.2871 39.9608 43.6369 47.2844 50.8724 54.3702 57.7482 60.9772 64.0295 66.8785 69.4996 71.8698 73.9684 75.7767 77.2788 78.4613 79.3135 79.828 80.0 80.0 79.8307 79.3243 78.4848 77.319 75.8364 74.049 71.9715 69.6211 67.0171 64.1813 61.1374 57.9109 54.5291 51.0207 47.4155 43.7445 40.0392 36.3314 32.6535 29.0172 25.4698 22.0479 18.7823 15.7026 12.8366 10.2099 7.8458 5.7646 3.9842 2.5191 1.381 0.5786 0.1174 0.0 0.2238 0.7835 1.6729 2.8831 4.4028 6.218 8.3129 10.6693 13.2677 16.0866 19.1031 22.2931 25.6308 29.0898 32.6465 36.2871 39.9608 43.6369 47.2844 50.8724 54.3702 57.7482 60.9772 64.0295 66.8785 69.4996 71.8698 73.9684 75.7767 77.2788 78.4613 79.3135 79.828 80.0 80.0 79.8307 79.3243 78.4848 77.319 75.8364 74.049 71.9715 69.6211 67.0171 64.1813 61.1374 57.9109 54.5291 51.0207 47.4155 43.7445 40.0392 36.3314 32.6535 29.0172 25.4698 22.0479 18.7823 15.7026 12.8366 10.2099 7.8458 5.7646 3.9842 2.5191 1.381 0.5786 0.1174 0.0 0.2238 0.7835 1.6729 2.8831 4.4028 6.218 8.3129 10.6693 13.2677 16.0866 19.1031 22.2931 25.6308 29.0898 32.6465 36.2871 39.9608 43.6369 47.2844 50.8724 54.3702 57.7482 60.9772 64.0295 66.8785 69.4996 71.8698 73.9684 75.7767 77.2788 78.4613 79.3135 79.828 80.0 80.0 79.8307 79.3243 78.4848 77.319 75.8364 74.049 71.9715 69.6211 67.0171 64.1813 61.1374 57.9109 54.5291 51.0207 47.4155 43.7445 40.0392 36.3314 32.6535 29.0172 25.4698 22.0479 18.7823 15.7026 12.8366 10.2099 7.8458 5.7646 3.9842 2.5191 1.381 0.5786 0.1174 0.0 0.2238 0.7835 1.6729 2.8831 4.4028 6.218 8.3129 10.6693 13.2677 16.0866 19.1031 22.2931 25.6308 29.0898 32.6465 36.2871 39.9608 43.6369 47.2844 50.8724 54.3702 57.7482 60.9772 64.0295 66.8785 69.4996 71.8698 73.9684 75.7767 77.2788 78.4613 79.3135 79.828 80.0 80.0 79.8307 79.3243 78.4848 77.319 75.8364 74.049 71.9715 69.6211 67.0171 64.1813 61.1374 57.9109 54.5291 51.0207 47.4155 43.7445 40.0392 36.3314 32.6535 29.0172 25.4698 22.0479 18.7823 15.7026 12.8366 10.2099 7.8458 5.7646 3.9842 2.5191 1.381 0.5786 0.1174 0.0 0.2238 0.7835 1.6729 2.8831 4.4028 6.218 8.3129 10.6693 13.2677 16.0866 19.1031 22.2931 25.6308 29.0898 32.6465 36.2871 39.9608 43.6369 47.2844 50.8724 54.3702 57.7482 60.9772 64.0295 66.8785 69.4996 71.8698 73.9684 75.7767 77.2788 78.4613 79.3135 79.828 80.0 80.0 79.8307 79.3243 78.4848 77.319 75.8364 74.049 71.9715 69.6211 67.0171 64.1813 61.1374 57.9109 54.5291 51.0207 47.4155 43.7445 40.0392 36.3314 32.6535 29.0172 25.4698 22.0479 18.7823 15.7026 12.8366 10.2099 7.8458 5.7646 3.9842 2.5191 1.381 0.5786 0.1174 0.0 0.2238 0.7835 1.6729 2.8831 4.4028 6.218 8.3129 10.6693 13.2677 16.0866 19.1031 22.2931 25.6308 29.0898 32.6465 36.2871 39.9608 43.6369 47.2844 50.8724 54.3702 57.7482 60.9772 64.0295 66.8785 69.4996 71.8698 73.9684 75.7767 77.2788 78.4613 79.3135 79.828 80.0 80.0 79.8307 79.3243 78.4848 77.319 75.8364 74.049 71.9715 69.6211 67.0171 64.1813 61.1374 57.9109 54.5291 51.0207 47.4155 43.7445 40.0392 36.3314 32.6535 29.0172 25.4698 22.0479 18.7823 15.7026 12.8366 10.2099 7.8458 5.7646 3.9842 2.5191 1.381 0.5786 0.1174 0.0 0.2238 0.7835 1.6729 2.8831 4.4028 6.218 8.3129 10.6693 13.2677 16.0866 19.1031 22.2931 25.6308 29.0898 32.6465 36.2871 39.9608 43.6369 47.2844 50.8724 54.3702 57.7482 60.9772 64.0295 66.8785 69.4996 71.8698 73.9684 75.7767 77.2788 78.4613 79.3135 79.828 80.0 80.0 79.8307 79.3243 78.4848 77.319 75.8364 74.049 71.9715 69.6211 67.0171 64.1813 61.1374 57.9109 54.5291 51.0207 47.4155 43.7445 40.0392 36.3314 32.6535 29.0172 25.4698 22.0479 18.7823 15.7026 12.8366 10.2099 7.8458 5.7646 3.9842 2.5191 1.381 0.5786 0.1174 0.0 0.2238 0.7835 1.6729 2.8831 4.4028 6.218 8.3129 10.6693 13.2677 16.0866 19.1031 22.2931 25.6308 29.0898 32.6465 36.2871 39.9608 43.6369 47.2844 50.8724 54.3702 57.7482 60.9772 64.0295 66.8785 69.4996 71.8698 73.9684 75.7767 77.2788 78.4613 79.3135 79.828 80.0 80.0 79.8307 79.3243 78.4848 77.319 75.8364 74.049 71.9715 69.6211 67.0171 64.1813 61.1374 57.9109 54.5291 51.0207 47.4155 43.7445 40.0392 36.3314 32.6535 29.0172 25.4698 22.0479 18.7823 15.7026 12.8366 10.2099 7.8458 5.7646 3.9842 2.5191 1.381 0.5786 0.1174 0.0 0.2238 0.7835 1.6729 2.8831 4.4028 6.218 8.3129 10.6693 13.2677 16.0866 19.1031 22.2931 25.6308 29.0898 32.6465 36.2871 39.9608 43.6369 47.2844 50.8724 54.3702 57.7482 60.9772 64.0295 66.8785 69.4996 71.8698 73.9684 75.7767 77.2788 78.4613 79.3135 79.828 80.0 80.0 79.8307 79.3243 78.4848 77.319 75.8364 74.049 71.9715 69.6211 67.0171 64.1813 61.1374 57.9109 54.5291 51.0207 47.4155 43.7445 40.0392 36.3314 32.6535 29.0172 25.4698 22.0479 18.7823 15.7026 12.8366 10.2099 7.8458 5.7646 3.9842 2.5191 1.381 0.5786 0.1174 0.0 0.2238 0.7835 1.6729 2.8831 4.4028 6.218 8.3129 10.6693 13.2677 16.0866 19.1031 22.2931 25.6308 29.0898 32.6465 36.2871 39.9608 43.6369 47.2844 50.8724 54.3702 57.7482 60.9772 64.0295 66.8785 69.4996 71.8698 73.9684 75.7767 77.2788 78.4613 79.3135 79.828 80.0 80.0 79.8307 79.3243 78.4848 77.319 75.8364 74.049 71.9715 69.6211 67.0171 64.1813 61.1374 57.9109 54.5291 51.0207 47.4155 43.7445 40.0392 36.3314 32.6535 29.0172 25.4698 22.0479 18.7823 15.7026 12.8366 10.2099 7.8458 5.7646 3.9842 2.5191 1.381 0.5786 0.1174 0.0 0.2238 0.7835 1.6729 2.8831 4.4028 6.218 8.3129 10.6693 13.2677 16.0866 19.1031 22.2931 25.6308 29.0898 32.6465 36.2871 39.9608 43.6369 47.2844 50.8724 54.3702 57.7482 60.9772 64.0295 66.8785 69.4996 71.8698 73.9684 75.7767 77.2788 78.4613 79.3135 79.828 80.0