# vtk DataFile Version 2.0
scalar
ASCII
DATASET UNSTRUCTURED_GRID
POINTS 3640 float
100.0 0.0 0.0
99.8379 0.0 0.0235
99.3525 0.0 0.0937
98.5471 0.0 0.2092
97.4268 0.0 0.3679
95.999 0.0 0.5668
94.2728 0.0 0.8027
92.2595 0.0 1.0713
89.9721 0.0 1.3686
87.4255 0.0 1.6899
84.6362 0.0 2.0306
81.6223 0.0 2.3858
78.4032 0.0 2.7507
75.0 0.0 3.1204
71.4346 0.0 3.4901
67.7302 0.0 3.8546
63.9109 0.0 4.2087
60.0013 0.0 4.5469
56.0268 0.0 4.8638
52.0133 0.0 5.1534
47.9867 0.0 5.4099
43.9732 0.0 5.6273
39.9987 0.0 5.7998
36.0891 0.0 5.922
32.2698 0.0 5.9889
28.5654 0.0 5.9963
25.0 0.0 5.9408
21.5968 0.0 5.8202
18.3777 0.0 5.6337
15.3638 0.0 5.3814
12.5745 0.0 5.0651
10.0279 0.0 4.6875
7.7405 0.0 4.2523
5.7272 0.0 3.7641
4.001 0.0 3.2281
2.5732 0.0 2.6494
1.4529 0.0 2.033
0.6475 0.0 1.3836
0.1621 0.0 0.705
0.0 0.0 0.0
0.1621 0.0 -0.705
0.6475 0.0 -1.3836
1.4529 0.0 -2.033
2.5732 0.0 -2.6494
4.001 0.0 -3.2281
5.7272 0.0 -3.7641
7.7405 0.0 -4.2523
10.0279 0.0 -4.6875
12.5745 0.0 -5.0651
15.3638 0.0 -5.3814
18.3777 0.0 -5.6337
21.5968 0.0 -5.8202
25.0 0.0 -5.9408
28.5654 0.0 -5.9963
32.2698 0.0 -5.9889
36.0891 0.0 -5.922
39.9987 0.0 -5.7998
43.9732 0.0 -5.6273
47.9867 0.0 -5.4099
52.0133 0.0 -5.1534
56.0268 0.0 -4.8638
60.0013 0.0 -4.5469
63.9109 0.0 -4.2087
67.7302 0.0 -3.8546
71.4346 0.0 -3.4901
75.0 0.0 -3.1204
78.4032 0.0 -2.7507
81.6223 0.0 -2.3858
84.6362 0.0 -2.0306
87.4255 0.0 -1.6899
89.9721 0.0 -1.3686
92.2595 0.0 -1.0713
94.2728 0.0 -0.8027
95.999 0.0 -0.5668
97.4268 0.0 -0.3679
98.5471 0.0 -0.2092
99.3525 0.0 -0.0937
99.8379 0.0 -0.0235
100.0 0.0 0.0
100.0 7.6923 0.0
99.8373 7.6923 0.0189
99.3501 7.6923 0.0754
98.5418 7.6923 0.168
97.4174 7.6923 0.295
95.9845 7.6923 0.4535
94.2524 7.6923 0.6404
92.2323 7.6923 0.852
89.9374 7.6923 1.0845
87.3828 7.6923 1.3337
84.5849 7.6923 1.5953
81.5622 7.6923 1.8651
78.3341 7.6923 2.1389
74.9218 7.6923 2.4123
71.3474 7.6923 2.681
67.6342 7.6923 2.9406
63.8063 7.6923 3.1865
59.8887 7.6923 3.4141
55.9069 7.6923 3.6184
51.8868 7.6923 3.7944
47.8545 7.6923 3.937
43.8364 7.6923 4.0408
39.8587 7.6923 4.1009
35.9472 7.6923 4.1125
32.1275 7.6923 4.0713
28.4244 7.6923 3.9739
24.862 7.6923 3.8176
21.4635 7.6923 3.6009
18.2511 7.6923 3.3234
15.2455 7.6923 2.9861
12.4662 7.6923 2.591
9.9313 7.6923 2.1415
7.6571 7.6923 1.6418
5.6585 7.6923 1.0969
3.9481 7.6923 0.5123
2.5372 7.6923 -0.1066
1.4348 7.6923 -0.7544
0.6481 7.6923 -1.4263
0.1821 7.6923 -2.1184
0.04 7.6923 -2.8277
0.222 7.6923 -3.5278
0.7263 7.6923 -4.1924
1.5498 7.6923 -4.8188
2.687 7.6923 -5.4032
4.1307 7.6923 -5.9413
5.8713 7.6923 -6.4283
7.8976 7.6923 -6.8594
10.1964 7.6923 -7.2297
12.7526 7.6923 -7.5352
15.5498 7.6923 -7.7725
18.5697 7.6923 -7.9394
21.7927 7.6923 -8.0349
25.198 7.6923 -8.0591
28.7635 7.6923 -8.0138
32.4662 7.6923 -7.9017
36.2821 7.6923 -7.7268
40.1867 7.6923 -7.4941
44.1547 7.6923 -7.2093
48.1605 7.6923 -6.8785
52.1782 7.6923 -6.5082
56.1819 7.6923 -6.1052
60.1459 7.6923 -5.6761
64.0443 7.6923 -5.2275
67.8521 7.6923 -4.7655
71.5447 7.6923 -4.2964
75.0982 7.6923 -3.8261
78.4897 7.6923 -3.3603
81.6971 7.6923 -2.9045
84.6998 7.6923 -2.4642
87.4783 7.6923 -2.0448
90.0148 7.6923 -1.6516
92.2929 7.6923 -1.2898
94.2978 7.6923 -0.9643
96.0166 7.6923 -0.6797
97.4383 7.6923 -0.4405
98.5536 7.6923 -0.2502
99.3554 7.6923 -0.112
99.8386 7.6923 -0.0281
100.0 7.6923 0.0
100.0 15.3846 0.0
99.8371 15.3846 0.0176
99.3495 15.3846 0.0699
98.5404 15.3846 0.1557
97.415 15.3846 0.2731
95.9808 15.3846 0.4194
94.2472 15.3846 0.5917
92.2254 15.3846 0.7862
89.9286 15.3846 0.9992
87.3719 15.3846 1.2267
84.572 15.3846 1.4647
81.547 15.3846 1.7089
78.3167 15.3846 1.9553
74.9022 15.3846 2.1997
71.3257 15.3846 2.4381
67.6104 15.3846 2.6663
63.7806 15.3846 2.8798
59.8612 15.3846 3.0741
55.8778 15.3846 3.2447
51.8563 15.3846 3.3867
47.823 15.3846 3.495
43.8042 15.3846 3.5648
39.8261 15.3846 3.5912
35.9147 15.3846 3.5697
32.0954 15.3846 3.4962
28.3933 15.3846 3.3674
24.8324 15.3846 3.1809
21.4359 15.3846 2.9354
18.2258 15.3846 2.6307
15.2232 15.3846 2.2679
12.4474 15.3846 1.8493
9.9164 15.3846 1.3783
7.6466 15.3846 0.8594
5.6526 15.3846 0.2976
3.9472 15.3846 -0.3015
2.5416 15.3846 -0.9323
1.4448 15.3846 -1.5894
0.6637 15.3846 -2.2679
0.2037 15.3846 -2.9639
0.0675 15.3846 -3.6744
0.2555 15.3846 -4.373
0.7654 15.3846 -5.0333
1.5942 15.3846 -5.6526
2.7363 15.3846 -6.2274
4.1845 15.3846 -6.7533
5.9292 15.3846 -7.2256
7.959 15.3846 -7.6394
10.2609 15.3846 -7.9902
12.8196 15.3846 -8.274
15.6187 15.3846 -8.4877
18.6399 15.3846 -8.629
21.8636 15.3846 -8.6971
25.2689 15.3846 -8.6925
28.8339 15.3846 -8.617
32.5355 15.3846 -8.4735
36.3499 15.3846 -8.2664
40.2523 15.3846 -8.0006
44.2178 15.3846 -7.6821
48.2206 15.3846 -7.3174
52.2351 15.3846 -6.9131
56.2352 15.3846 -6.4762
60.1954 15.3846 -6.0136
64.0899 15.3846 -5.5319
67.8937 15.3846 -5.0377
71.5822 15.3846 -4.5373
75.1315 15.3846 -4.0369
78.5189 15.3846 -3.5424
81.7223 15.3846 -3.0594
84.7212 15.3846 -2.5937
87.4961 15.3846 -2.1508
90.0292 15.3846 -1.7362
92.3041 15.3846 -1.355
94.3062 15.3846 -1.0125
96.0225 15.3846 -0.7135
97.4421 15.3846 -0.4622
98.5558 15.3846 -0.2625
99.3564 15.3846 -0.1174
99.8388 15.3846 -0.0295
100.0 15.3846 0.0
100.0 23.0769 0.0
99.837 23.0769 0.0167
99.3491 23.0769 0.0664
98.5396 23.0769 0.1479
97.4136 23.0769 0.2592
95.9787 23.0769 0.3979
94.2441 23.0769 0.5609
92.2213 23.0769 0.7446
89.9234 23.0769 0.9453
87.3655 23.0769 1.1591
84.5644 23.0769 1.382
81.5381 23.0769 1.61
78.3066 23.0769 1.8391
74.8908 23.0769 2.0653
71.313 23.0769 2.2846
67.5966 23.0769 2.4928
63.7657 23.0769 2.6858
59.8453 23.0769 2.8592
55.8611 23.0769 3.0084
51.8389 23.0769 3.1288
47.8051 23.0769 3.2156
43.7859 23.0769 3.2639
39.8078 23.0769 3.269
35.8965 23.0769 3.2265
32.0777 23.0769 3.1325
28.3763 23.0769 2.9839
24.8164 23.0769 2.7784
21.4213 23.0769 2.5147
18.2129 23.0769 2.1928
15.2123 23.0769 1.8139
12.4387 23.0769 1.3805
9.9103 23.0769 0.896
7.6433 23.0769 0.3649
5.6523 23.0769 -0.2076
3.9502 23.0769 -0.8158
2.548 23.0769 -1.4541
1.4547 23.0769 -2.1171
0.6773 23.0769 -2.7998
0.221 23.0769 -3.4983
0.0886 23.0769 -4.2095
0.2803 23.0769 -4.907
0.7938 23.0769 -5.5646
1.6258 23.0769 -6.1795
2.7711 23.0769 -6.7481
4.222 23.0769 -7.2663
5.9692 23.0769 -7.7292
8.0013 23.0769 -8.1321
10.3049 23.0769 -8.4706
12.8652 23.0769 -8.7407
15.6653 23.0769 -8.9394
18.6872 23.0769 -9.0645
21.9113 23.0769 -9.1154
25.3166 23.0769 -9.0926
28.8811 23.0769 -8.9979
32.5819 23.0769 -8.8347
36.3951 23.0769 -8.6071
40.296 23.0769 -8.3204
44.2597 23.0769 -7.9807
48.2605 23.0769 -7.5946
52.2728 23.0769 -7.1688
56.2705 23.0769 -6.7105
60.2281 23.0769 -6.2266
64.12 23.0769 -5.7241
67.9211 23.0769 -5.2095
71.6069 23.0769 -4.6895
75.1535 23.0769 -4.17
78.5382 23.0769 -3.6573
81.739 23.0769 -3.1572
84.7353 23.0769 -2.6755
87.5078 23.0769 -2.2177
90.0386 23.0769 -1.7895
92.3115 23.0769 -1.3962
94.3117 23.0769 -1.043
96.0264 23.0769 -0.7348
97.4446 23.0769 -0.4759
98.5572 23.0769 -0.2702
99.357 23.0769 -0.1209
99.839 23.0769 -0.0303
100.0 23.0769 0.0
100.0 30.7692 0.0
99.837 30.7692 0.0161
99.3489 30.7692 0.0639
98.539 30.7692 0.1423
97.4127 30.7692 0.2494
95.9772 30.7692 0.3827
94.242 30.7692 0.539
92.2185 30.7692 0.715
89.9199 30.7692 0.907
87.3612 30.7692 1.1112
84.5592 30.7692 1.3234
81.5322 30.7692 1.54
78.2998 30.7692 1.7568
74.8831 30.7692 1.97
71.3046 30.7692 2.1757
67.5874 30.7692 2.3698
63.7558 30.7692 2.5483
59.8348 30.7692 2.7068
55.85 30.7692 2.8409
51.8274 30.7692 2.9461
47.7933 30.7692 3.0175
43.774 30.7692 3.0506
39.7958 30.7692 3.0405
35.8847 30.7692 2.9832
32.0663 30.7692 2.8748
28.3655 30.7692 2.7121
24.8064 30.7692 2.4931
21.4123 30.7692 2.2165
18.2052 30.7692 1.8825
15.206 30.7692 1.4922
12.4341 30.7692 1.0482
9.9075 30.7692 0.5541
7.6426 30.7692 0.0144
5.6538 30.7692 -0.5656
3.954 30.7692 -1.1803
2.5542 30.7692 -1.8239
1.4634 30.7692 -2.491
0.6886 30.7692 -3.1767
0.2349 30.7692 -3.8768
0.1053 30.7692 -4.5885
0.2996 30.7692 -5.2853
0.8156 30.7692 -5.941
1.65 30.7692 -6.5527
2.7974 30.7692 -7.117
4.2503 30.7692 -7.6296
5.9992 30.7692 -8.0859
8.0328 30.7692 -8.4811
10.3377 30.7692 -8.8109
12.899 30.7692 -9.0713
15.6999 30.7692 -9.2593
18.7222 30.7692 -9.373
21.9464 30.7692 -9.4116
25.3516 30.7692 -9.3759
28.9158 30.7692 -9.2677
32.6159 30.7692 -9.0904
36.4282 30.7692 -8.8484
40.328 30.7692 -8.5469
44.2904 30.7692 -8.1922
48.2897 30.7692 -7.7908
52.3003 30.7692 -7.3499
56.2963 30.7692 -6.8764
60.2521 30.7692 -6.3775
64.142 30.7692 -5.8602
67.9411 30.7692 -5.3312
71.6249 30.7692 -4.7972
75.1695 30.7692 -4.2643
78.5522 30.7692 -3.7387
81.7511 30.7692 -3.2265
84.7456 30.7692 -2.7334
87.5163 30.7692 -2.2651
90.0455 30.7692 -1.8273
92.3168 30.7692 -1.4254
94.3157 30.7692 -1.0646
96.0292 30.7692 -0.7498
97.4464 30.7692 -0.4856
98.5582 30.7692 -0.2757
99.3575 30.7692 -0.1233
99.8391 30.7692 -0.031
100.0 30.7692 0.0
100.0 38.4615 0.0
99.8369 38.4615 0.0156
99.3487 38.4615 0.0621
98.5386 38.4615 0.1382
97.412 38.4615 0.2421
95.9761 38.4615 0.3712
94.2405 38.4615 0.5226
92.2165 38.4615 0.6929
89.9174 38.4615 0.8784
87.3581 38.4615 1.0752
84.5555 38.4615 1.2796
81.5279 38.4615 1.4875
78.2949 38.4615 1.6951
74.8777 38.4615 1.8986
71.2985 38.4615 2.0941
67.5808 38.4615 2.2777
63.7487 38.4615 2.4453
59.8272 38.4615 2.5926
55.8421 38.4615 2.7154
51.8192 38.4615 2.8092
47.7849 38.4615 2.8691
43.7655 38.4615 2.8907
39.7874 38.4615 2.8694
35.8765 38.4615 2.801
32.0584 38.4615 2.6817
28.3581 38.4615 2.5085
24.7996 38.4615 2.2794
21.4063 38.4615 1.9932
18.2002 38.4615 1.65
15.2021 38.4615 1.2512
12.4315 38.4615 0.7994
9.9063 38.4615 0.2981
7.6429 38.4615 -0.248
5.6558 38.4615 -0.8337
3.9578 38.4615 -1.4532
[...]
POINT_DATA 3640
SCALARS cp1 float
LOOKUP_TABLE default
0.536318
0.445007
0.324505
0.256927
0.198675
0.1478
0.105141
0.0641211
0.0238253
-0.0132399
-0.0494792
-0.0841495
-0.116389
-0.149705
-0.183856
-0.217878
-0.2527
-0.288641
-0.325927
-0.364737
-0.405205
-0.447352
-0.491203
-0.536878
-0.584137
-0.633468
-0.685262
-0.738583
-0.794525
-0.854962
-0.921575
-0.998071
-1.09083
-1.21086
-1.37477
-1.61064
-1.97933
-2.53971
-2.67815
-1.09417
0.916255
1.4208
1.1236
0.817244
0.578141
0.391001
0.246371
0.135472
0.0514411
-0.0103565
-0.0541824
-0.0847422
-0.104787
-0.115853
-0.120851
-0.121218
-0.117543
-0.11099
-0.102246
-0.091857
-0.0802848
-0.0678191
-0.0546466
-0.0405415
-0.0256704
-0.00981613
0.00679292
0.0237779
0.0439475
0.0662957
0.0895376
0.117517
0.148611
0.181158
0.220331
0.269185
0.330235
0.44257
0.528771
0.539304
0.458563
0.342377
0.262874
0.201336
0.149199
0.103106
0.0609984
0.0217147
-0.0153961
-0.0510112
-0.0856498
-0.119669
-0.1535
-0.187541
-0.222163
-0.25771
-0.294505
-0.332843
-0.372956
-0.415011
-0.459134
-0.505477
-0.554274
-0.605481
-0.659312
-0.716323
-0.776957
-0.84249
-0.914255
-0.994072
-1.08525
-1.19199
-1.32023
-1.47753
-1.66996
-1.87057
-1.85485
-1.0388
0.50876
1.44444
1.28933
0.925646
0.660966
0.463931
0.313895
0.198494
0.109369
0.0408501
-0.0112459
-0.0498486
-0.0774291
-0.0963159
-0.107976
-0.113535
-0.114327
-0.111434
-0.105664
-0.0976646
-0.0879382
-0.0769253
-0.0649181
-0.0520599
-0.0382967
-0.0236784
-0.00814572
0.00855604
0.0264503
0.0460656
0.0678714
0.0919673
0.118993
0.149697
0.18507
0.227001
0.278832
0.348805
0.454377
0.528391
0.540102
0.454187
0.335641
0.25756
0.197449
0.14608
0.0994955
0.0574141
0.0187077
-0.0182568
-0.0535229
-0.0880216
-0.122495
-0.156408
-0.190414
-0.225275
-0.261123
-0.298295
-0.337117
-0.377852
-0.420678
-0.465763
-0.513278
-0.563466
-0.616366
-0.6721
-0.731177
-0.79422
-0.862266
-0.936187
-1.01723
-1.10758
-1.20951
-1.32573
-1.45889
-1.61004
-1.76595
-1.80139
-1.25358
0.120627
1.26768
1.29364
0.914476
0.61678
0.412809
0.269147
0.163998
0.0851006
0.0252002
-0.0204787
-0.0546525
-0.0791587
-0.0960907
-0.106742
-0.111703
-0.112172
-0.109211
-0.103494
-0.0956389
-0.0860877
-0.0752538
-0.0634254
-0.0507225
-0.0371496
-0.0227137
-0.00739198
0.00921902
0.0272741
0.0465525
0.0679873
0.0921124
0.118492
0.148579
0.184069
0.225524
0.275741
0.343373
0.449653
0.52701
0.53927
0.453351
0.335068
0.257326
0.196929
0.14534
0.0989526
0.0568453
0.0178016
-0.019414
-0.0549247
-0.089477
-0.123729
-0.157627
-0.191805
-0.226766
-0.262706
-0.299974
-0.338882
-0.379709
-0.422632
-0.467815
-0.515361
-0.56542
-0.618092
-0.673509
-0.731944
-0.793675
-0.859285
-0.929607
-1.00576
-1.08957
-1.18374
-1.29225
-1.41978
-1.56928
-1.72839
-1.7723
-1.19434
0.279033
1.35278
1.27097
0.88793
0.598199
0.395878
0.251669
0.146652
0.0689837
0.0109277
-0.0324092
-0.0641753
-0.0866575
-0.101685
-0.110567
-0.114353
-0.114058
-0.110465
-0.104272
-0.0960803
-0.0863059
-0.0753048
-0.0633443
-0.0505406
-0.0369336
-0.0224896
-0.00711848
0.0094179
0.027366
0.0467366
0.0681976
0.0922291
0.118757
0.148882
0.183903
0.224914
0.275036
0.342503
0.448343
0.525408
0.539545
0.453288
0.334819
0.257114
0.196515
0.144763
0.0984966
0.0563402
0.0171309
-0.0200769
-0.0556695
-0.0902945
-0.124475
-0.158427
-0.192666
-0.227626
-0.263595
-0.300874
-0.339788
-0.380609
-0.423484
-0.468578
-0.515977
-0.565783
-0.618044
-0.672828
-0.730362
-0.790859
-0.854787
-0.922986
-0.996658
-1.07767
-1.16885
-1.27412
-1.398
-1.543
-1.69503
-1.72903
-1.13723
0.336328
1.36415
1.25719
0.872795
0.58395
0.382651
0.2394
0.13527
0.0584645
0.0013728
-0.0407784
-0.0712952
-0.0926628
-0.106584
-0.114415
-0.11738
-0.116402
-0.112245
-0.105616
-0.0970711
-0.0870448
-0.0758491
-0.063725
-0.0508061
-0.037125
-0.0226456
-0.00721295
0.00935566
0.0272574
0.0466958
0.0681665
0.0920632
0.118628
0.148785
0.183664
0.224591
0.274711
0.341991
0.44758
0.524666
0.539657
0.45318
0.334584
0.256871
0.196197
0.144423
0.098198
0.0559901
0.016718
-0.0204844
-0.0561295
-0.0907808
-0.12491
-0.15886
-0.193105
-0.228042
-0.263971
-0.301196
-0.340056
-0.380783
-0.423494
-0.468373
-0.515511
-0.564945
-0.61668
-0.670784
-0.727458
-0.786875
-0.849488
-0.916156
-0.988103
-1.06719
-1.15621
-1.25892
-1.37958
-1.52029
-1.66597
-1.6913
-1.08952
0.376867
1.37039
1.24622
0.860033
0.57172
0.37137
0.229082
0.125841
0.0498632
-0.00641265
-0.047735
-0.0774076
-0.0979489
-0.111086
-0.118203
-0.120518
-0.118959
-0.114331
-0.107314
-0.0984304
-0.0881299
-0.0767175
-0.0644259
-0.0513838
-0.0375916
-0.0230235
-0.00753425
0.00906377
0.0269823
0.0464708
0.0679467
0.0918057
0.118388
0.148539
0.183374
0.224307
0.274419
0.341553
0.447029
0.52411
0.539523
0.452981
0.334368
0.256694
0.195998
0.144226
0.098015
0.0557892
0.016501
-0.0206857
-0.0563314
-0.0909674
-0.125049
-0.15898
-0.193202
-0.228067
-0.263902
-0.301049
-0.339807
-0.380367
-0.422866
-0.467487
-0.514315
-0.56333
-0.614532
-0.668016
-0.723924
-0.782431
-0.844009
-0.909494
-0.98011
-1.05769
-1.14496
-1.24555
-1.36343
-1.50036
-1.64063
-1.65845
-1.0493
0.408673
1.37479
1.23691
0.848947
0.561098
0.36161
0.220224
0.117801
0.0425558
-0.0130377
-0.0537115
-0.0827516
-0.102675
-0.115235
-0.121815
-0.12361
-0.121577
-0.11655
-0.109186
-0.100003
-0.0894425
-0.0778151
-0.06536
-0.0521814
-0.0382611
-0.0235934
-0.00804275
0.00860661
0.0265722
0.0461075
0.0676074
0.0914637
0.118074
0.148244
0.183053
0.224012
0.274175
0.341298
0.446743
0.52383
0.539594
0.452987
0.334293
0.256613
0.195892
0.144103
0.0979309
0.0557419
0.016449
-0.0207223
-0.0563219
-0.0909127
-0.124955
-0.158842
-0.192998
-0.227771
-0.263507
-0.300542
-0.339148
-0.379522
-0.421796
-0.466142
-0.512638
-0.561233
-0.611953
-0.664886
-0.720118
-0.777873
-0.838627
-0.903147
-0.972669
-1.04899
-1.13477
-1.23352
-1.34897
-1.4825
-1.618
-1.62905
-1.01348
0.436121
1.37857
1.22861
0.838927
0.551537
0.352874
0.212325
0.110674
0.0360954
-0.0188891
-0.0590156
-0.0875492
-0.106975
-0.119075
-0.125222
-0.12659
-0.124179
-0.118813
-0.111134
-0.101687
-0.0909004
-0.0790762
-0.0664559
-0.0531212
-0.0390753
-0.0243125
-0.00868375
0.00803353
0.0260562
0.0456465
0.0671892
0.0910632
0.117727
0.147941
0.182726
0.223695
0.273919
0.341062
0.446467
0.523531
0.539821
0.453087
0.33429
0.25659
0.195868
0.144074
0.0979524
0.05581
0.0165401
-0.0205889
-0.0561366
-0.0906809
-0.124672
-0.158487
-0.192546
-0.227226
-0.26285
-0.299738
-0.338176
-0.378362
-0.420401
-0.464473
-0.510646
-0.558846
-0.609132
-0.661574
-0.716217
-0.773342
-0.833385
-0.89708
-0.965672
-1.04093
-1.1254
-1.22251
-1.3358
-1.46625
-1.59732
-1.60231
-0.98156
0.459823
1.38161
1.22109
0.829813
0.542825
0.344921
0.205151
0.104204
0.0302268
-0.024207
-0.0638543
-0.0919616
-0.11096
-0.122655
-0.128432
-0.129464
-0.126735
-0.121073
-0.113121
-0.103435
-0.0924385
-0.0804378
-0.0676612
-0.05417
-0.0400012
-0.0251413
-0.00941414
0.00738149
0.0254559
0.0451045
0.0667084
0.090622
0.117353
0.147624
0.182394
0.223376
0.273654
0.340807
0.446174
0.523174
0.539724
0.452961
0.334166
0.256573
0.195899
0.144138
0.0980606
0.0559744
0.0167673
-0.0203089
-0.0558188
-0.0903078
-0.124221
-0.15795
-0.191903
-0.226465
-0.26196
-0.298702
-0.336973
-0.376955
-0.41876
-0.462571
-0.508442
-0.556282
-0.606169
-0.658163
-0.712304
-0.768865
-0.82828
-0.891264
-0.959033
-1.03333
-1.11663
-1.21223
-1.32357
-1.45126
-1.57819
-1.57747
-0.952188
0.481266
1.38427
1.21408
0.821304
0.534702
0.337541
0.198518
0.0982064
0.0247864
-0.0291534
-0.0683633
-0.0960801
-0.114713
-0.126046
-0.131493
-0.13224
-0.129237
-0.123313
-0.115129
-0.105219
-0.0940235
-0.0818613
-0.0689396
-0.0553039
-0.0410089
-0.0260485
-0.0102251
0.00666223
0.0248034
0.0445119
0.0661855
0.0901516
0.116937
0.147264
0.182079
0.223127
0.273455
0.340656
0.446054
0.523081
0.539776
0.45297
0.334161
0.256583
0.195981
0.144294
0.0982559
0.0562143
0.0170794
-0.0199282
-0.0553782
-0.0897976
-0.12362
-0.157255
-0.191096
-0.225528
-0.260896
-0.297493
-0.335575
-0.375348
-0.416938
-0.4605
-0.506075
-0.553595
-0.603113
-0.654699
-0.708396
-0.764446
-0.823298
-0.885666
-0.952682
-1.02606
-1.1083
-1.20251
-1.31199
-1.43717
-1.56026
-1.55427
-0.924953
0.500797
1.38657
1.2075
0.813305
0.52706
0.330592
0.192269
0.0925389
0.0196541
-0.0338188
-0.0726237
-0.0999733
-0.118283
-0.129307
-0.134457
-0.134941
-0.131687
-0.125534
-0.117141
-0.107028
-0.0956508
-0.0833319
-0.0702636
-0.0564948
-0.0420807
-0.0270176
-0.0110991
0.00588764
0.0241135
0.0438948
0.0656361
0.0896603
0.1165
0.146877
0.181762
0.222864
0.27322
0.340487
0.445931
0.522957
0.539844
0.453036
0.334233
0.256672
0.196121
0.144503
0.0985167
0.0565248
0.0174472
-0.0194687
-0.0548187
-0.0891543
-0.122888
-0.156425
-0.190149
-0.224454
-0.259689
-0.296125
-0.334019
-0.373592
-0.414978
-0.458289
-0.503571
-0.550803
-0.599993
-0.651199
-0.704493
-0.760071
-0.818401
-0.88021
-0.946521
-1.01904
-1.10028
-1.19323
-1.30094
-1.42361
-1.54314
-1.53223
-0.899336
0.519146
1.38866
1.20116
0.805626
0.519732
0.323937
0.186278
0.0871165
0.0147365
-0.0382974
-0.0767094
-0.103714
-0.12173
-0.132465
-0.13735
-0.1376
-0.134115
-0.127737
-0.119148
-0.108853
-0.0973121
-0.0848436
-0.0716266
-0.0577279
-0.0432063
-0.0280364
-0.0120086
0.00507329
0.0233787
0.0432403
0.0650566
0.0891604
0.116066
0.146492
0.181445
0.222593
0.27299
0.34032
0.445795
0.522775
0.53977
0.453004
0.334291
0.256814
0.196312
0.144745
0.0988221
0.0569091
0.0179068
-0.0189312
-0.0541828
-0.0884073
-0.122041
-0.155472
-0.189078
-0.223258
-0.258351
-0.294623
-0.332336
-0.371707
-0.41289
-0.45596
-0.500957
-0.547919
-0.596811
-0.647659
-0.70057
-0.75572
-0.813558
-0.874814
-0.940466
-1.01221
-1.09252
-1.18421
-1.29021
-1.41049
-1.52657
-1.51087
-0.874583
0.536506
1.39057
1.19496
0.798134
0.512622
0.317496
0.180465
0.0818676
0.00995036
-0.0426684
-0.0806877
-0.107367
-0.125097
-0.135557
-0.140195
-0.140226
-0.136531
-0.129942
-0.121157
-0.110695
-0.0990072
-0.0863922
-0.0730239
-0.0589962
-0.0443723
-0.0290935
-0.0129519
0.00422143
0.0226092
0.0425474
0.0644418
0.0886495
0.115625
0.146099
0.181138
0.222369
0.272842
0.340216
0.445705
0.522728
0.539846
0.453098
0.334408
0.256979
0.19656
0.145041
0.0991827
0.0573579
0.0184523
-0.0183056
-0.0534764
-0.08759
-0.121103
-0.154407
-0.187897
-0.22195
-0.25689
-0.293002
-0.330534
-0.369697
-0.410682
-0.453531
-0.498262
-0.544944
-0.593547
-0.644066
-0.696595
-0.751343
-0.808729
-0.869448
-0.934474
-1.00548
-1.08483
-1.17527
-1.27966
-1.39772
-1.51038
-1.48983
-0.850509
0.553082
1.39227
1.18886
0.790774
0.505642
0.311124
0.174741
0.076713
0.00524822
-0.0469724
-0.0846285
-0.110989
-0.128417
-0.138615
-0.14303
-0.142838
-0.138937
-0.132161
-0.123191
-0.112571
-0.100736
-0.0879631
-0.0744506
-0.0603078
-0.045579
-0.030182
-0.0139294
0.00333262
0.0218167
0.0418459
0.0638154
0.0881102
0.11516
0.145701
0.180817
0.222127
0.272672
0.340056
0.445552
0.522604
0.540049
0.453329
0.334636
0.257211
0.19683
0.145357
0.099596
0.0578785
0.0190602
-0.0176014
-0.0526765
-0.0866974
-0.12009
-0.153254
-0.186618
-0.220535
-0.255317
-0.291263
-0.328616
-0.367583
-0.408353
-0.450985
-0.495482
-0.541873
-0.590179
-0.6404
-0.692565
-0.746907
-0.80386
-0.864063
-0.928494
-0.998758
-1.07716
-1.16637
-1.26915
-1.385
-1.49429
-1.46904
-0.826662
0.569405
1.39386
1.18277
0.783434
0.498667
0.304778
0.169031
0.0715684
0.000574857
-0.0512495
-0.0885641
-0.114604
-0.131737
-0.141684
-0.14587
-0.145458
-0.141357
-0.1344
-0.125262
-0.114485
-0.102489
-0.089561
-0.0759229
-0.0616659
-0.0468126
-0.0312958
-0.0149461
0.00240306
0.0209959
0.0411354
0.0631771
0.0875345
0.114678
0.14531
0.18049
0.22185
0.272441
0.33986
0.445333
0.522357
0.540123
0.453428
0.334807
0.257452
0.1971
0.145701
0.100061
0.0584492
0.0197168
-0.0168412
-0.0518057
-0.0857293
-0.118996
-0.152014
-0.185238
-0.219008
-0.253636
-0.289416
-0.326589
-0.365366
-0.40591
-0.448315
-0.492583
-0.5387
-0.586713
-0.636627
-0.688442
-0.742403
-0.798917
-0.85859
-0.922437
-0.991984
-1.06944
-1.15743
-1.25857
-1.3721
-1.47808
-1.44828
-0.802898
0.585706
1.39532
1.17653
0.776003
0.49163
0.298391
0.16326
0.0663587
-0.00413681
-0.0555507
-0.0925212
-0.118237
-0.135092
-0.144798
-0.148741
-0.148112
-0.143818
-0.13667
-0.127367
-0.116435
-0.104275
-0.091207
-0.0774477
-0.063055
-0.0480673
-0.0324456
-0.0160073
0.00143864
0.0201462
0.0404
0.0625227
0.0869456
0.114192
0.144928
0.180178
0.221584
0.272236
0.339756
0.445267
0.522274
0.540036
0.453365
0.334849
0.257645
0.197395
0.146103
0.100568
0.0590365
0.0204115
-0.0160259
-0.050874
-0.0846767
-0.117812
-0.150686
-0.183766
-0.217383
-0.251844
-0.287452
-0.324443
-0.363024
-0.403356
-0.445526
-0.489544
-0.53541
-0.583144
-0.632719
-0.68419
-0.737786
-0.793851
-0.852989
-0.916227
-0.985055
-1.0616
-1.14838
-1.24783
-1.35896
-1.46158
-1.4272
-0.778882
0.602051
1.39664
1.17015
0.768378
0.484441
0.291898
0.157384
0.0610433
-0.00893366
-0.0599264
-0.096548
-0.121932
-0.138508
-0.147965
-0.151667
-0.150823
-0.146331
-0.138992
-0.129516
-0.118427
-0.106112
-0.0929027
-0.079011
-0.0644807
-0.0493701
-0.0336467
-0.0171001
0.000454002
0.0192605
0.0396284
0.0618643
0.0863663
0.113688
0.144514
0.179855
0.221364
0.272116
0.339745
0.445365
0.522387
0.540259
0.453536
0.335062
0.257924
0.197737
0.146545
0.10112
0.0596787
0.0211615
-0.0151569
-0.0498722
-0.083533
-0.116535
-0.149279
-0.182208
-0.215657
-0.249941
-0.285363
-0.32217
-0.360553
-0.400669
-0.442609
-0.486373
-0.531978
-0.579422
-0.628663
-0.679796
-0.733007
-0.788613
-0.847232
-0.909845
-0.977914
-1.05351
-1.13906
-1.23682
-1.34553
-1.44473
-1.40561
-0.754225
0.618564
1.39786
1.16353
0.760545
0.477048
0.285193
0.151344
0.0555872
-0.0138603
-0.064423
-0.100676
-0.125729
-0.142012
-0.151205
-0.154666
-0.153598
-0.148913
-0.14139
-0.131729
-0.120473
-0.108
-0.0946427
-0.080626
-0.0659668
-0.0507249
-0.0348878
-0.0182235
-0.000556457
0.0183414
0.0388175
0.0611766
0.0857679
0.113156
0.144074
0.179518
0.221132
0.271966
0.339601
0.44517
0.522159
0.540448
0.45372
0.335273
0.258223
0.198111
0.147009
0.101703
0.0603726
0.021975
-0.0142284
-0.0488122
-0.0823126
-0.115167
-0.147781
-0.18055
-0.21381
-0.247918
-0.283157
-0.319767
-0.357939
-0.397826
-0.439541
-0.483054
-0.528372
-0.575516
-0.624431
-0.675212
-0.728027
-0.783179
-0.841273
-0.903241
-0.970507
-1.0451
-1.12937
-1.2254
-1.33172
-1.42735
-1.38326
-0.728749
0.635535
1.399
1.15659
0.752355
0.469336
0.27822
0.145073
0.0499467
-0.0189641
-0.0690734
-0.104935
-0.129655
-0.145628
-0.154548
-0.157767
-0.156461
-0.151571
-0.143867
-0.134017
-0.122586
-0.109953
-0.0964408
-0.0822973
-0.067512
-0.0521263
-0.0361677
-0.0193932
-0.00160548
0.0174003
0.0379734
0.0604375
0.0851335
0.112619
0.143635
0.179181
0.220863
0.271773
0.339464
0.445038
0.522013
0.540312
0.453676
0.335391
0.258501
0.198507
0.147492
0.10229
0.0610977
0.0228448
-0.0132272
-0.0476829
-0.0810231
-0.113712
-0.146171
-0.178775
-0.211853
-0.245776
-0.280823
-0.317216
-0.355167
-0.39482
-0.43629
-0.479549
-0.52458
-0.571411
-0.61999
-0.670407
-0.72282
-0.777501
-0.835028
-0.896322
-0.962782
-1.03638
-1.11931
-1.21349
-1.31725
-1.40914
-1.35993
-0.702462
0.653032
1.40002
1.14925
0.743743
0.461251
0.270919
0.138541
0.0440799
-0.0242975
-0.0739348
-0.10937
-0.13373
-0.149376
-0.158012
-0.160986
-0.159436
-0.154322
-0.146421
-0.136382
-0.12478
-0.111988
-0.0983159
-0.084023
-0.069109
-0.0535904
-0.0374987
-0.0206071
-0.00269563
0.016424
0.0370898
0.0596551
0.0844732
0.112083
0.143204
0.178832
0.220596
0.271599
0.339441
0.445163
0.522251
0.540435
0.453863
0.33565
0.258796
0.198913
0.148018
0.102926
0.0618729
0.023769
-0.0121595
-0.0464677
-0.0796492
-0.11217
-0.144449
-0.176874
-0.209776
-0.2435
-0.278329
-0.314499
-0.35223
-0.391639
-0.432833
-0.475821
-0.52057
-0.567076
-0.615317
-0.665359
-0.717335
-0.771517
-0.828451
-0.889042
-0.954682
-1.02725
-1.10879
-1.20102
-1.30202
-1.39
-1.33562
-0.675098
0.671023
1.4009
1.14146
0.734648
0.452713
0.263254
0.131679
0.0379146
-0.0298913
-0.0790299
-0.114007
-0.137979
-0.153292
-0.16163
-0.164329
-0.16253
-0.157186
-0.149072
-0.138841
-0.127058
-0.114104
-0.100274
-0.085816
-0.0707652
-0.0551253
-0.0388891
-0.0218657
-0.00383766
0.015399
0.0361722
0.0588491
0.0837793
0.111506
0.14274
0.178445
0.220309
0.271405
0.339262
0.445049
0.522184
0.54071
0.454171
0.33595
0.259086
0.199327
0.148589
0.10362
0.0627067
0.0247526
-0.0110256
-0.0451691
-0.0781852
-0.110531
-0.142623
-0.174852
-0.207551
-0.241057
-0.275655
-0.311607
-0.349101
-0.388247
-0.429158
-0.471849
-0.516302
-0.562484
-0.610371
-0.660009
-0.711514
-0.765182
-0.821527
-0.881384
-0.946132
-1.01758
-1.09764
-1.18786
-1.28602
-1.3699
-1.31003
-0.646376
0.689865
1.40167
1.13308
0.724988
0.443687
0.255134
0.124421
0.0314096
-0.0357631
-0.0843588
-0.118879
-0.142451
-0.15741
-0.165424
-0.167816
-0.165751
-0.160172
-0.151836
-0.141407
-0.12943
-0.1163
-0.102313
-0.087687
-0.0724951
-0.0567296
-0.0403423
-0.0231827
-0.00504161
0.0143186
0.0352179
0.0580203
0.0830574
0.110879
0.142229
0.178032
0.220005
0.2712
0.339089
0.444904
0.522057
0.540699
0.454201
0.336057
0.25935
0.199764
0.149175
0.104348
0.0635785
0.0257867
-0.00981357
-0.0437915
-0.0766298
-0.108778
-0.140679
-0.172692
-0.205156
-0.238434
-0.272799
-0.308513
-0.345735
-0.384605
-0.425237
-0.467618
-0.511749
-0.557598
-0.605096
-0.65429
-0.705311
-0.758455
-0.814188
-0.87327
-0.937071
-1.00733
-1.08582
-1.17393
-1.26913
-1.34872
-1.28292
-0.616014
0.70961
1.4023
1.1241
0.714679
0.434092
0.246517
0.116721
0.0245125
-0.0419705
-0.0899796
-0.124026
-0.147164
-0.161723
-0.169388
-0.171474
-0.169136
-0.163295
-0.154718
-0.144082
-0.131909
-0.118587
-0.104427
-0.0896477
-0.0743111
-0.058399
-0.0418625
-0.0245667
-0.00630784
0.0131744
0.0342101
0.0571436
0.0822961
0.110235
0.141708
0.177618
0.219691
0.27101
0.339066
0.445021
0.522241
0.540574
0.45408
0.336117
0.259678
0.200247
0.149787
0.105111
0.0644932
0.0268686
-0.00853166
-0.0423251
-0.0749646
-0.106897
-0.138585
-0.17036
-0.202581
-0.235621
-0.269734
-0.305176
-0.342111
-0.380692
-0.421025
-0.463084
-0.50687
-0.552353
-0.59945
-0.648178
-0.698695
-0.751283
-0.806348
-0.864618
-0.927431
-0.996436
-1.07327
-1.15913
-1.25121
-1.32629
-1.25421
-0.583905
0.730289
1.40268
1.11438
0.703638
0.423851
0.237336
0.10854
0.0171805
-0.048567
-0.0959453
-0.129458
-0.152119
-0.166247
-0.173547