TITLE = "AGPS 3D Finite Element Data"
VARIABLES = "x", "y", "z", "cp1"
ZONE T="MIXED", N=3160, E=3042, DATAPACKING=BLOCK, ZONETYPE=FEQUADRILATERAL
100.0 99.8379 99.3525 98.5471 97.4268 95.999 94.2728 92.2595 89.9721 87.4255 84.6362 81.6223 78.4032 75.0 71.4346 67.7302 63.9109 60.0013 56.0268 52.0133 47.9867 43.9732 39.9987 36.0891 32.2698 28.5654 25.0 21.5968 18.3777 15.3638 12.5745 10.0279 7.7405 5.7272 4.001 2.5732 1.4529 0.6475 0.1621 0.0 0.1621 0.6475 1.4529 2.5732 4.001 5.7272 7.7405 10.0279 12.5745 15.3638 18.3777 21.5968 25.0 28.5654 32.2698 36.0891 39.9987 43.9732 47.9867 52.0133 56.0268 60.0013 63.9109 67.7302 71.4346 75.0 78.4032 81.6223 84.6362 87.4255 89.9721 92.2595 94.2728 95.999 97.4268 98.5471 99.3525 99.8379 100.0 100.0 99.8373 99.3501 98.5418 97.4174 95.9845 94.2524 92.2323 89.9374 87.3828 84.5849 81.5622 78.3341 74.9218 71.3474 67.6342 63.8063 59.8887 55.9069 51.8868 47.8545 43.8364 39.8587 35.9472 32.1275 28.4244 24.862 21.4635 18.2511 15.2455 12.4662 9.9313 7.6571 5.6585 3.9481 2.5372 1.4348 0.6481 0.1821 0.04 0.222 0.7263 1.5498 2.687 4.1307 5.8713 7.8976 10.1964 12.7526 15.5498 18.5697 21.7927 25.198 28.7635 32.4662 36.2821 40.1867 44.1547 48.1605 52.1782 56.1819 60.1459 64.0443 67.8521 71.5447 75.0982 78.4897 81.6971 84.6998 87.4783 90.0148 92.2929 94.2978 96.0166 97.4383 98.5536 99.3554 99.8386 100.0 100.0 99.8371 99.3495 98.5404 97.415 95.9808 94.2472 92.2254 89.9286 87.3719 84.572 81.547 78.3167 74.9022 71.3257 67.6104 63.7806 59.8612 55.8778 51.8563 47.823 43.8042 39.8261 35.9147 32.0954 28.3933 24.8324 21.4359 18.2258 15.2232 12.4474 9.9164 7.6466 5.6526 3.9472 2.5416 1.4448 0.6637 0.2037 0.0675 0.2555 0.7654 1.5942 2.7363 4.1845 5.9292 7.959 10.2609 12.8196 15.6187 18.6399 21.8636 25.2689 28.8339 32.5355 36.3499 40.2523 44.2178 48.2206 52.2351 56.2352 60.1954 64.0899 67.8937 71.5822 75.1315 78.5189 81.7223 84.7212 87.4961 90.0292 92.3041 94.3062 96.0225 97.4421 98.5558 99.3564 99.8388 100.0 100.0 99.837 99.3491 98.5396 97.4136 95.9787 94.2441 92.2213 89.9234 87.3655 84.5644 81.5381 78.3066 74.8908 71.313 67.5966 63.7657 59.8453 55.8611 51.8389 47.8051 43.7859 39.8078 35.8965 32.0777 28.3763 24.8164 21.4213 18.2129 15.2123 12.4387 9.9103 7.6433 5.6523 3.9502 2.548 1.4547 0.6773 0.221 0.0886 0.2803 0.7938 1.6258 2.7711 4.222 5.9692 8.0013 10.3049 12.8652 15.6653 18.6872 21.9113 25.3166 28.8811 32.5819 36.3951 40.296 44.2597 48.2605 52.2728 56.2705 60.2281 64.12 67.9211 71.6069 75.1535 78.5382 81.739 84.7353 87.5078 90.0386 92.3115 94.3117 96.0264 97.4446 98.5572 99.357 99.839 100.0 100.0 99.837 99.3489 98.539 97.4127 95.9772 94.242 92.2185 89.9199 87.3612 84.5592 81.5322 78.2998 74.8831 71.3046 67.5874 63.7558 59.8348 55.85 51.8274 47.7933 43.774 39.7958 35.8847 32.0663 28.3655 24.8064 21.4123 18.2052 15.206 12.4341 9.9075 7.6426 5.6538 3.954 2.5542 1.4634 0.6886 0.2349 0.1053 0.2996 0.8156 1.65 2.7974 4.2503 5.9992 8.0328 10.3377 12.899 15.6999 18.7222 21.9464 25.3516 28.9158 32.6159 36.4282 40.328 44.2904 48.2897 52.3003 56.2963 60.2521 64.142 67.9411 71.6249 75.1695 78.5522 81.7511 84.7456 87.5163 90.0455 92.3168 94.3157 96.0292 97.4464 98.5582 99.3575 99.8391 100.0 100.0 99.8369 99.3487 98.5386 97.412 95.9761 94.2405 92.2165 89.9174 87.3581 84.5555 81.5279 78.2949 74.8777 71.2985 67.5808 63.7487 59.8272 55.8421 51.8192 47.7849 43.7655 39.7874 35.8765 32.0584 28.3581 24.7996 21.4063 18.2002 15.2021 12.4315 9.9063 7.6429 5.6558 3.9578 2.5598 1.4709 0.6981 0.2464 0.1188 0.3151 0.8329 1.669 2.818 4.2723 6.0226 8.0573 10.3631 12.9251 15.7265 18.7492 21.9735 25.3785 28.9424 32.642 36.4536 40.3526 44.3139 48.3121 52.3214 56.316 60.2703 64.1588 67.9564 71.6386 75.1817 78.5629 81.7603 84.7534 87.5228 90.0507 92.3209 94.3187 96.0313 97.4478 98.559 99.3578 99.8392 100.0 100.0 99.8369 99.3486 98.5383 97.4114 95.9753 94.2394 92.215 89.9155 87.3558 84.5528 81.5246 78.2912 74.8736 71.294 67.5758 63.7434 59.8217 55.8362 51.8132 47.7787 43.7593 39.7812 35.8705 32.0527 28.3527 24.7948 21.4021 18.1968 15.1996 12.43 9.9059 7.6437 5.6578 3.9612 2.5646 1.4772 0.7059 0.2557 0.1297 0.3275 0.8468 1.6842 2.8344 4.2899 6.0411 8.0767 10.3832 12.9457 15.7475 18.7704 21.9948 25.3997 28.9633 32.6625 36.4735 40.3718 44.3323 48.3296 52.3379 56.3315 60.2847 64.172 67.9684 71.6494 75.1913 78.5713 81.7676 84.7595 87.5279 90.0548 92.3241 94.3211 96.033 97.4489 98.5596 99.3581 99.8393 100.0 100.0 99.8369 99.3485 98.5381 97.411 95.9747 94.2385 92.2138 89.914 87.354 84.5506 81.5222 78.2884 74.8704 71.2905 67.5721 63.7393 59.8174 55.8318 51.8085 47.774 43.7546 39.7766 35.866 32.0484 28.3488 24.7912 21.3991 18.1943 15.1978 12.429 9.9059 7.6446 5.6598 3.9642 2.5688 1.4825 0.7124 0.2635 0.1387 0.3377 0.8581 1.6966 2.8478 4.3041 6.0561 8.0923 10.3994 12.9624 15.7645 18.7875 22.0119 25.4168 28.9801 32.679 36.4895 40.3873 44.3471 48.3437 52.3512 56.3439 60.2961 64.1825 67.9779 71.658 75.199 78.578 81.7734 84.7644 87.5319 90.0581 92.3266 94.323 96.0344 97.4498 98.5601 99.3583 99.8393 100.0 100.0 99.8368 99.3484 98.5379 97.4107 95.9742 94.2378 92.2129 89.9128 87.3526 84.5489 81.5202 78.2862 74.8679 71.2878 67.5691 63.7362 59.814 55.8283 51.8049 47.7704 43.7509 39.773 35.8625 32.0451 28.3457 24.7886 21.3968 18.1926 15.1966 12.4285 9.906 7.6455 5.6615 3.9668 2.5724 1.487 0.7179 0.2699 0.1461 0.3461 0.8674 1.7067 2.8587 4.3157 6.0683 8.105 10.4126 12.9759 15.7782 18.8014 22.0258 25.4306 28.9937 32.6923 36.5025 40.3998 44.3591 48.355 52.3619 56.3539 60.3054 64.191 67.9857 71.6649 75.2051 78.5834 81.778 84.7684 87.5352 90.0607 92.3287 94.3245 96.0354 97.4505 98.5605 99.3585 99.8394 100.0 100.0 99.8368 99.3483 98.5378 97.4104 95.9738 94.2372 92.2122 89.9119 87.3515 84.5476 81.5186 78.2844 74.8659 71.2856 67.5667 63.7337 59.8114 55.8255 51.8021 47.7675 43.7481 39.7701 35.8598 32.0425 28.3434 24.7865 21.3951 18.1912 15.1958 12.4282 9.9063 7.6464 5.6631 3.9691 2.5754 1.4908 0.7224 0.2753 0.1523 0.353 0.8751 1.7151 2.8677 4.3253 6.0784 8.1155 10.4234 12.987 15.7895 18.8128 22.0372 25.4419 29.0049 32.7032 36.5131 40.41 44.3689 48.3643 52.3706 56.3621 60.313 64.198 67.992 71.6706 75.2102 78.5879 81.7819 84.7716 87.5379 90.0629 92.3304 94.3258 96.0363 97.451 98.5608 99.3587 99.8394 100.0 100.0 99.8368 99.3483 98.5376 97.4102 95.9735 94.2368 92.2116 89.9112 87.3505 84.5465 81.5174 78.283 74.8643 71.2838 67.5648 63.7316 59.8092 55.8233 51.7998 47.7652 43.7457 39.7679 35.8576 32.0405 28.3415 24.7849 21.3937 18.1902 15.1952 12.428 9.9066 7.6472 5.6645 3.9711 2.5779 1.494 0.7263 0.2797 0.1574 0.3588 0.8815 1.7221 2.8751 4.3332 6.0867 8.1242 10.4324 12.9962 15.7988 18.8222 22.0466 25.4513 29.0141 32.7123 36.5219 40.4185 44.377 48.372 52.3779 56.3688 60.3193 64.2037 67.9972 71.6753 75.2144 78.5915 81.785 84.7743 87.5401 90.0647 92.3318 94.3268 96.0371 97.4515 98.5611 99.3588 99.8394 100.0 100.0 99.8368 99.3482 98.5375 97.4101 95.9732 94.2364 92.2111 89.9105 87.3498 84.5456 81.5163 78.2818 74.863 71.2824 67.5633 63.73 59.8075 55.8214 51.7979 47.7633 43.7438 39.766 35.8558 32.0388 28.34 24.7836 21.3927 18.1895 15.1947 12.4279 9.9069 7.648 5.6657 3.9728 2.5801 1.4967 0.7295 0.2836 0.1618 0.3637 0.8869 1.7279 2.8814 4.3399 6.0937 8.1315 10.4399 13.0039 15.8067 18.8301 22.0545 25.4591 29.0219 32.7198 36.5292 40.4255 44.3837 48.3784 52.3839 56.3745 60.3245 64.2085 68.0016 71.6793 75.2179 78.5946 81.7876 84.7765 87.542 90.0662 92.3329 94.3277 96.0377 97.4519 98.5613 99.3589 99.8395 100.0 100.0 99.8368 99.3482 98.5375 97.4099 95.973 94.2361 92.2107 89.91 87.3492 84.5449 81.5155 78.2808 74.8619 71.2812 67.562 63.7286 59.806 55.8199 51.7963 47.7617 43.7423 39.7645 35.8543 32.0374 28.3388 24.7825 21.3918 18.1888 15.1944 12.4279 9.9072 7.6486 5.6667 3.9743 2.5821 1.4991 0.7323 0.2868 0.1655 0.3679 0.8915 1.7329 2.8868 4.3455 6.0997 8.1377 10.4463 13.0104 15.8133 18.8368 22.0612 25.4658 29.0284 32.7263 36.5355 40.4316 44.3895 48.3839 52.3891 56.3793 60.329 64.2126 68.0053 71.6826 75.2208 78.5972 81.7899 84.7784 87.5435 90.0674 92.3339 94.3284 96.0382 97.4522 98.5615 99.359 99.8395 100.0 100.0 99.8368 99.3482 98.5374 97.4098 95.9728 94.2359 92.2104 89.9096 87.3486 84.5442 81.5147 78.28 74.861 71.2802 67.5609 63.7274 59.8047 55.8186 51.795 47.7603 43.7409 39.7632 35.8531 32.0363 28.3377 24.7816 21.3911 18.1883 15.1941 12.4279 9.9075 7.6493 5.6677 3.9756 2.5837 1.5011 0.7348 0.2897 0.1687 0.3715 0.8955 1.7373 2.8914 4.3505 6.1049 8.1431 10.4519 13.0161 15.8191 18.8426 22.067 25.4715 29.0341 32.7318 36.5409 40.4368 44.3945 48.3886 52.3935 56.3835 60.3328 64.2162 68.0085 71.6855 75.2234 78.5994 81.7918 84.7801 87.5449 90.0685 92.3348 94.3291 96.0386 97.4525 98.5617 99.359 99.8395 100.0 100.0 99.8368 99.3481 98.5373 97.4097 95.9726 94.2356 92.21 89.9092 87.3482 84.5437 81.5141 78.2792 74.8602 71.2793 67.5599 63.7263 59.8037 55.8175 51.7939 47.7592 43.7398 39.762 35.852 32.0353 28.3368 24.7808 21.3905 18.1879 15.1939 12.4279 9.9078 7.6498 5.6686 3.9767 2.5852 1.503 0.737 0.2922 0.1716 0.3748 0.899 1.7411 2.8955 4.3548 6.1094 8.1479 10.4568 13.0211 15.8242 18.8477 22.0722 25.4766 29.0391 32.7367 36.5456 40.4413 44.3989 48.3928 52.3974 56.3871 60.3362 64.2193 68.0114 71.688 75.2256 78.6014 81.7935 84.7815 87.5461 90.0695 92.3355 94.3296 96.039 97.4528 98.5618 99.3591 99.8395 100.0 100.0 99.8368 99.3481 98.5373 97.4096 95.9725 94.2354 92.2098 89.9089 87.3477 84.5432 81.5135 78.2786 74.8594 71.2785 67.559 63.7254 59.8027 55.8165 51.7928 47.7581 43.7387 39.761 35.851 32.0344 28.336 24.7801 21.3899 18.1875 15.1937 12.4279 9.908 7.6503 5.6694 3.9778 2.5866 1.5047 0.739 0.2945 0.1742 0.3777 0.9023 1.7446 2.8993 4.3588 6.1136 8.1522 10.4612 13.0257 15.8288 18.8524 22.0768 25.4812 29.0437 32.7412 36.5499 40.4455 44.4028 48.3966 52.401 56.3905 60.3393 64.2221 68.0139 71.6903 75.2277 78.6032 81.7951 84.7828 87.5472 90.0704 92.3362 94.3301 96.0394 97.453 98.562 99.3592 99.8395 100.0 100.0 99.8368 99.3481 98.5372 97.4095 95.9724 94.2352 92.2095 89.9085 87.3473 84.5427 81.513 78.2779 74.8587 71.2777 67.5582 63.7246 59.8018 55.8155 51.7919 47.7571 43.7378 39.7601 35.8502 32.0336 28.3353 24.7795 21.3895 18.1872 15.1936 12.428 9.9083 7.6508 5.6701 3.9788 2.5879 1.5062 0.7408 0.2967 0.1767 0.3805 0.9053 1.7479 2.9028 4.3625 6.1175 8.1562 10.4654 13.0299 15.8331 18.8567 22.0812 25.4855 29.0479 32.7453 36.554 40.4494 44.4066 48.4001 52.4043 56.3936 60.3422 64.2247 68.0163 71.6925 75.2296 78.6049 81.7965 84.784 87.5482 90.0712 92.3368 94.3306 96.0397 97.4532 98.5621 99.3592 99.8396 100.0 100.0 99.8367 99.3481 98.5372 97.4094 95.9722 94.235 92.2093 89.9082 87.347 84.5423 81.5125 78.2774 74.8581 71.277 67.5574 63.7237 59.8009 55.8146 51.791 47.7562 43.7369 39.7592 35.8493 32.0328 28.3346 24.7789 21.389 18.1869 15.1934 12.428 9.9086 7.6513 5.6709 3.9798 2.5892 1.5078 0.7426 0.2988 0.1791 0.3831 0.9082 1.751 2.9061 4.3661 6.1212 8.1601 10.4694 13.034 15.8373 18.8609 22.0853 25.4897 29.052 32.7493 36.5578 40.4531 44.4101 48.4035 52.4075 56.3965 60.3449 64.2273 68.0186 71.6946 75.2314 78.6065 81.7979 84.7852 87.5491 90.072 92.3375 94.3311 96.04 97.4534 98.5622 99.3593 99.8396 100.0 100.0 99.8367 99.348 98.5371 97.4093 95.9721 94.2349 92.209 89.9079 87.3466 84.5418 81.512 78.2768 74.8575 71.2763 67.5567 63.7229 59.8001 55.8138 51.7901 47.7553 43.736 39.7584 35.8485 32.032 28.3339 24.7784 21.3886 18.1866 15.1933 12.4281 9.9089 7.6519 5.6716 3.9808 2.5904 1.5093 0.7445 0.3009 0.1815 0.3858 0.9111 1.7542 2.9095 4.3696 6.1249 8.164 10.4734 13.0381 15.8414 18.8651 22.0895 25.4938 29.0561 32.7533 36.5617 40.4568 44.4137 48.4069 52.4107 56.3995 60.3477 64.2298 68.0209 71.6966 75.2333 78.6081 81.7993 84.7864 87.5501 90.0727 92.3381 94.3315 96.0404 97.4536 98.5623 99.3593 99.8396 100.0 100.0 99.8367 99.348 98.5371 97.4093 95.972 94.2347 92.2088 89.9076 87.3462 84.5414 81.5114 78.2762 74.8568 71.2756 67.5559 63.7221 59.7992 55.8129 51.7892 47.7544 43.7351 39.7575 35.8477 32.0313 28.3333 24.7778 21.3881 18.1863 15.1932 12.4282 9.9092 7.6524 5.6724 3.9819 2.5917 1.5109 0.7463 0.303 0.1839 0.3885 0.9141 1.7574 2.9129 4.3733 6.1287 8.1679 10.4775 13.0423 15.8456 18.8693 22.0938 25.498 29.0602 32.7574 36.5656 40.4606 44.4173 48.4103 52.4139 56.4025 60.3505 64.2324 68.0232 71.6987 75.2351 78.6097 81.8007 84.7876 87.5511 90.0735 92.3387 94.332 96.0407 97.4539 98.5624 99.3594 99.8396 100.0 100.0 99.8367 99.348 98.537 97.4092 95.9718 94.2345 92.2085 89.9073 87.3458 84.5409 81.5109 78.2756 74.8561 71.2749 67.5551 63.7213 59.7983 55.8119 51.7882 47.7535 43.7341 39.7566 35.8468 32.0305 28.3326 24.7772 21.3877 18.1861 15.1931 12.4283 9.9095 7.653 5.6732 3.983 2.5931 1.5126 0.7483 0.3053 0.1865 0.3913 0.9172 1.7608 2.9166 4.3771 6.1327 8.1721 10.4817 13.0467 15.8501 18.8738 22.0982 25.5025 29.0646 32.7616 36.5698 40.4646 44.4211 48.4139 52.4173 56.4057 60.3534 64.2351 68.0257 71.7009 75.2371 78.6114 81.8022 84.7888 87.5521 90.0744 92.3393 94.3325 96.041 97.4541 98.5626 99.3594 99.8396 100.0 100.0 99.8367 99.348 98.537 97.4091 95.9717 94.2343 92.2083 89.907 87.3454 84.5404 81.5103 78.275 74.8554 71.2741 67.5543 63.7204 59.7974 55.811 51.7872 47.7525 43.7332 39.7556 35.8459 32.0297 28.3318 24.7766 21.3872 18.1858 15.193 12.4284 9.9099 7.6536 5.6741 3.9842 2.5946 1.5144 0.7504 0.3077 0.1892 0.3944 0.9206 1.7644 2.9204 4.3812 6.137 8.1765 10.4863 13.0513 15.8548 18.8786 22.103 25.5072 29.0692 32.7662 36.5742 40.4689 44.4252 48.4178 52.421 56.4091 60.3565 64.2379 68.0283 71.7033 75.2392 78.6132 81.8037 84.7901 87.5532 90.0753 92.34 94.333 96.0414 97.4543 98.5627 99.3595 99.8396 100.0 100.0 99.8367 99.3479 98.5369 97.409 95.9715 94.2341 92.208 89.9066 87.345 84.5399 81.5097 78.2743 74.8547 71.2732 67.5534 63.7194 59.7964 55.8099 51.7862 47.7514 43.7321 39.7546 35.845 32.0288 28.3311 24.776 21.3868 18.1855 15.193 12.4286 9.9103 7.6543 5.6751 3.9855 2.5963 1.5163 0.7527 0.3103 0.1922 0.3977 0.9242 1.7683 2.9246 4.3856 6.1417 8.1813 10.4913 13.0564 15.86 18.8837 22.1081 25.5123 29.0743 32.7711 36.579 40.4735 44.4296 48.4219 52.4249 56.4128 60.3599 64.2411 68.0311 71.7058 75.2414 78.6152 81.8054 84.7916 87.5544 90.0762 92.3408 94.3335 96.0418 97.4546 98.5629 99.3596 99.8396 100.0 100.0 99.8367 99.3479 98.5369 97.4089 95.9714 94.2338 92.2077 89.9062 87.3445 84.5393 81.5091 78.2735 74.8539 71.2723 67.5524 63.7184 59.7953 55.8088 51.785 47.7503 43.731 39.7535 35.844 32.0279 28.3303 24.7753 21.3863 18.1852 15.1929 12.4288 9.9108 7.6551 5.6762 3.987 2.5981 1.5185 0.7552 0.3133 0.1955 0.4014 0.9282 1.7726 2.9292 4.3905 6.1468 8.1866 10.4967 13.0619 15.8656 18.8894 22.1138 25.5179 29.0798 32.7765 36.5842 40.4785 44.4344 48.4265 52.4292 56.4168 60.3637 64.2445 68.0342 71.7086 75.2439 78.6174 81.8073 84.7932 87.5557 90.0773 92.3416 94.3342 96.0422 97.4548 98.563 99.3596 99.8397 100.0 100.0 99.8367 99.3479 98.5368 97.4087 95.9712 94.2336 92.2073 89.9058 87.344 84.5387 81.5084 78.2727 74.853 71.2714 67.5514 63.7173 59.7941 55.8076 51.7838 47.749 43.7298 39.7524 35.8428 32.0269 28.3294 24.7746 21.3858 18.1849 15.1929 12.4291 9.9114 7.656 5.6775 3.9886 2.6001 1.5209 0.7581 0.3165 0.1991 0.4054 0.9326 1.7774 2.9343 4.3958 6.1524 8.1924 10.5027 13.0681 15.8718 18.8956 22.12 25.5241 29.0859 32.7824 36.5899 40.484 44.4397 48.4315 52.4339 56.4212 60.3677 64.2482 68.0376 71.7117 75.2466 78.6198 81.8094 84.7949 87.5572 90.0784 92.3425 94.3348 96.0427 97.4552 98.5632 99.3597 99.8397 100.0 100.0 99.8367 99.3479 98.5367 97.4086 95.971 94.2333 92.207 89.9053 87.3434 84.5381 81.5076 78.2719 74.852 71.2703 67.5502 63.716 59.7928 55.8063 51.7824 47.7477 43.7285 39.7511 35.8417 32.0258 28.3285 24.7739 21.3852 18.1846 15.1929 12.4294 9.912 7.657 5.6789 3.9904 2.6023 1.5236 0.7612 0.3201 0.2032 0.4099 0.9375 1.7827 2.94 4.4018 6.1586 8.1989 10.5093 13.0748 15.8786 18.9025 22.1269 25.5309 29.0926 32.789 36.5963 40.4902 44.4456 48.4371 52.4392 56.4261 60.3723 64.2524 68.0414 71.715 75.2496 78.6224 81.8116 84.7968 87.5588 90.0797 92.3435 94.3356 96.0432 97.4555 98.5634 99.3598 99.8397 100.0 100.0 99.8367 99.3478 98.5366 97.4085 95.9708 94.233 92.2066 89.9048 87.3428 84.5373 81.5068 78.2709 74.8509 71.2691 67.549 63.7147 59.7915 55.8048 51.781 47.7462 43.727 39.7497 35.8404 32.0246 28.3275 24.7731 21.3847 18.1844 15.1929 12.4298 9.9128 7.6582 5.6805 3.9925 2.6049 1.5266 0.7647 0.3241 0.2077 0.4149 0.943 1.7886 2.9462 4.4084 6.1655 8.2061 10.5167 13.0824 15.8863 18.9102 22.1346 25.5385 29.1 32.7962 36.6034 40.497 44.4521 48.4432 52.445 56.4315 60.3773 64.257 68.0456 71.7188 75.2529 78.6253 81.8141 84.7989 87.5605 90.0811 92.3446 94.3364 96.0438 97.4559 98.5636 99.3599 99.8397 100.0 100.0 99.8367 99.3478 98.5365 97.4083 95.9705 94.2327 92.2061 89.9042 87.3421 84.5365 81.5058 78.2699 74.8497 71.2679 67.5476 63.7133 59.7899 55.8033 51.7794 47.7447 43.7255 39.7482 35.839 32.0234 28.3264 24.7723 21.3841 18.1841 15.193 12.4302 9.9137 7.6595 5.6824 3.9948 2.6077 1.53 0.7687 0.3286 0.2127 0.4205 0.9491 1.7951 2.9532 4.4157 6.1732 8.214 10.5249 13.0907 15.8947 18.9187 22.143 25.5469 29.1083 32.8043 36.6112 40.5045 44.4592 48.4501 52.4514 56.4375 60.3828 64.262 68.0502 71.7229 75.2566 78.6285 81.8169 84.8013 87.5625 90.0827 92.3458 94.3373 96.0444 97.4563 98.5638 99.36 99.8397 100.0 100.0 99.8367 99.3477 98.5364 97.4081 95.9703 94.2323 92.2056 89.9036 87.3414 84.5356 81.5048 78.2687 74.8485 71.2665 67.5461 63.7117 59.7883 55.8016 51.7777 47.743 43.7238 39.7467 35.8375 32.0221 28.3253 24.7714 21.3835 18.1839 15.1932 12.4308 9.9147 7.6611 5.6844 3.9974 2.6109 1.5338 0.7731 0.3336 0.2184 0.4267 0.9558 1.8024 2.9609 4.4239 6.1817 8.2228 10.534 13.0999 15.9041 18.9281 22.1524 25.5562 29.1174 32.8132 36.6199 40.5128 44.4672 48.4576 52.4585 56.4441 60.389 64.2677 68.0553 71.7275 75.2607 78.6321 81.82 84.8039 87.5646 90.0844 92.3472 94.3383 96.0452 97.4567 98.5641 99.3601 99.8398 100.0 100.0 99.8367 99.3477 98.5363 97.408 95.97 94.2319 92.2051 89.903 87.3406 84.5347 81.5037 78.2675 74.8471 71.265 67.5445 63.71 59.7865 55.7998 51.7759 47.7411 43.722 39.745 35.836 32.0207 28.3241 24.7705 21.383 18.1837 15.1934 12.4315 9.916 7.6629 5.6868 4.0004 2.6146 1.5381 0.778 0.3392 0.2246 0.4336 0.9634 1.8105 2.9695 4.4329 6.1911 8.2326 10.544 13.1102 15.9144 18.9385 22.1628 25.5665 29.1275 32.8231 36.6294 40.522 44.476 48.466 52.4663 56.4515 60.3957 64.2739 68.061 71.7326 75.2652 78.636 81.8234 84.8068 87.567 90.0863 92.3487 94.3394 96.0459 97.4572 98.5644 99.3602 99.8398 100.0 100.0 99.8366 99.3476 98.5362 97.4078 95.9697 94.2315 92.2046 89.9023 87.3397 84.5337 81.5025 78.2662 74.8456 71.2634 67.5428 63.7082 59.7846 55.7978 51.7739 47.7392 43.7202 39.7432 35.8343 32.0193 28.3229 24.7696 21.3825 18.1836 15.1938 12.4324 9.9174 7.6649 5.6895 4.0038 2.6186 1.5429 0.7835 0.3454 0.2316 0.4413 0.9717 1.8195 2.9791 4.443 6.2016 8.2434 10.5551 13.1215 15.9259 18.95 22.1743 25.5778 29.1387 32.834 36.64 40.5322 44.4857 48.4752 52.475 56.4595 60.4032 64.2807 68.0672 71.7382 75.2702 78.6404 81.8271 84.8099 87.5696 90.0885 92.3503 94.3407 96.0468 97.4578 98.5647 99.3604 99.8398 100.0 100.0 99.8366 99.3476 98.5361 97.4075 95.9694 94.231 92.2039 89.9015 87.3388 84.5326 81.5013 78.2647 74.8441 71.2617 67.5409 63.7062 59.7826 55.7958 51.7718 47.7371 43.7181 39.7413 35.8326 32.0177 28.3217 24.7687 21.382 18.1835 15.1943 12.4335 9.9191 7.6673 5.6926 4.0076 2.6232 1.5482 0.7897 0.3524 0.2394 0.4499 0.981 1.8294 2.9896 4.4541 6.2132 8.2554 10.5674 13.134 15.9385 18.9627 22.1869 25.5904 29.151 32.8461 36.6517 40.5434 44.4964 48.4853 52.4846 56.4685 60.4115 64.2883 68.0741 71.7444 75.2756 78.6452 81.8312 84.8134 87.5725 90.0908 92.3521 94.342 96.0478 97.4584 98.565 99.3605 99.8399 100.0 100.0 99.8366 99.3475 98.536 97.4073 95.969 94.2305 92.2033 89.9007 87.3378 84.5314 81.4999 78.2632 74.8424 71.2598 67.539 63.7041 59.7804 55.7936 51.7696 47.7349 43.716 39.7393 35.8308 32.0162 28.3205 24.7679 21.3816 18.1836 15.1949 12.4348 9.9211 7.67 5.6961 4.0119 2.6283 1.5542 0.7965 0.3601 0.248 0.4594 0.9913 1.8404 3.0013 4.4663 6.226 8.2686 10.5809 13.1478 15.9525 18.9767 22.2009 25.6042 29.1646 32.8593 36.6645 40.5558 44.5082 48.4965 52.495 56.4782 60.4205 64.2966 68.0816 71.7511 75.2816 78.6504 81.8358 84.8172 87.5757 90.0933 92.3541 94.3435 96.0488 97.4591 98.5654 99.3607 99.8399 100.0 100.0 99.8366 99.3475 98.5358 97.4071 95.9686 94.23 92.2026 89.8998 87.3367 84.5301 81.4985 78.2616 74.8406 71.2579 67.5369 63.7019 59.7782 55.7912 51.7673 47.7326 43.7138 39.7372 35.829 32.0146 28.3193 24.7671 21.3812 18.1839 15.1958 12.4363 9.9234 7.6731 5.7 4.0168 2.6341 1.5609 0.8042 0.3688 0.2576 0.4699 1.0027 1.8526 3.0142 4.4799 6.2401 8.2832 10.5959 13.163 15.9678 18.9921 22.2162 25.6194 29.1795 32.8738 36.6786 40.5693 44.5212 48.5088 52.5066 56.489 60.4305 64.3057 68.0899 71.7586 75.2882 78.6562 81.8408 84.8215 87.5792 90.0961 92.3563 94.3451 96.0499 97.4598 98.5658 99.3609 99.84 100.0 100.0 99.8366 99.3474 98.5357 97.4068 95.9682 94.2294 92.2019 89.8989 87.3356 84.5288 81.4969 78.2598 74.8387 71.2558 67.5347 63.6996 59.7758 55.7888 51.7648 47.7302 43.7116 39.7351 35.8271 32.0131 28.3181 24.7663 21.3811 18.1843 15.1969 12.4382 9.9261 7.6767 5.7046 4.0223 2.6406 1.5684 0.8127 0.3783 0.2682 0.4815 1.0153 1.8661 3.0284 4.4948 6.2556 8.2992 10.6123 13.1797 15.9847 19.009 22.2331 25.636 29.1959 32.8898 36.694 40.5842 44.5353 48.5222 52.5192 56.5008 60.4414 64.3157 68.0989 71.7667 75.2955 78.6625 81.8462 84.8261 87.583 90.0992 92.3587 94.3469 96.0512 97.4606 98.5663 99.3611 99.84 100.0 100.0 99.8366 99.3473 98.5355 97.4065 95.9678 94.2288 92.2011 89.8979 87.3344 84.5274 81.4953 78.258 74.8367 71.2536 67.5323 63.6972 59.7733 55.7862 51.7623 47.7278 43.7092 39.733 35.8252 32.0115 28.317 24.7657 21.3811 18.185 15.1983 12.4405 9.9293 7.6808 5.7097 4.0284 2.6479 1.5768 0.8222 0.389 0.28 0.4944 1.0291 1.8809 3.0441 4.5112 6.2727 8.3168 10.6303 13.198 16.0032 19.0276 22.2515 25.6543 29.2138 32.9073 36.7109 40.6004 44.5509 48.5369 52.533 56.5137 60.4533 64.3267 68.1088 71.7756 75.3034 78.6694 81.8521 84.8311 87.5871 90.1026 92.3613 94.3489 96.0526 97.4615 98.5668 99.3613 99.8401 100.0 100.0 99.8365 99.3472 98.5353 97.4062 95.9673 94.2282 92.2002 89.8968 87.3331 84.5259 81.4936 78.2561 74.8345 71.2513 67.5299 63.6947 59.7707 55.7836 51.7597 47.7253 43.7069 39.7309 35.8234 32.0101 28.316 24.7653 21.3813 18.1859 15.2001 12.4432 9.9329 7.6856 5.7155 4.0354 2.656 1.5862 0.8328 0.4008 0.293 0.5086 1.0445 1.8972 3.0613 4.5293 6.2914 8.3361 10.6501 13.2181 16.0235 19.0479 22.2717 25.6742 29.2334 32.9264 36.7294 40.6182 44.5678 48.553 52.5481 56.5278 60.4663 64.3386 68.1197 71.7853 75.312 78.6769 81.8586 84.8366 87.5917 90.1062 92.3641 94.351 96.0541 97.4625 98.5674 99.3616 99.8401 100.0 100.0 99.8365 99.3472 98.5352 97.4059 95.9669 94.2275 92.1994 89.8957 87.3318 84.5244 81.4918 78.2541 74.8324 71.249 67.5274 63.6921 59.768 55.7809 51.757 47.7227 43.7045 39.7287 35.8216 32.0087 28.3152 24.7651 21.3818 18.1873 15.2023 12.4464 9.9372 7.6909 5.7221 4.0432 2.6651 1.5966 0.8445 0.4138 0.3074 0.5243 1.0613 1.9152 3.0803 4.5491 6.3119 8.3573 10.6717 13.2401 16.0456 19.0701 22.2938 25.696 29.2548 32.9472 36.7496 40.6376 44.5863 48.5705 52.5646 56.5431 60.4805 64.3516 68.1315 71.7959 75.3214 78.6852 81.8657 84.8425 87.5966 90.1102 92.3672 94.3533 96.0557 97.4636 98.5679 99.3618 99.8402 100.0 100.0 99.8365 99.3471 98.535 97.4056 95.9664 94.2268 92.1984 89.8946 87.3304 84.5227 81.49 78.252 74.8301 71.2466 67.5249 63.6894 59.7653 55.7782 51.7544 47.7202 43.7022 39.7267 35.8199 32.0075 28.3145 24.7652 21.3826 18.189 15.205 12.4502 9.9421 7.6971 5.7296 4.0521 2.6753 1.6082 0.8576 0.4283 0.3234 0.5416 1.0799 1.9349 3.1011 4.5708 6.3345 8.3805 10.6954 13.2642 16.0699 19.0943 22.318 25.7199 29.2782 32.97 36.7716 40.6588 44.6065 48.5896 52.5826 56.5598 60.496 64.3658 68.1443 71.8074 75.3316 78.6941 81.8734 84.8491 87.602 90.1145 92.3706 94.3558 96.0575 97.4647 98.5686 99.3621 99.8403 100.0 100.0 99.8365 99.347 98.5348 97.4052 95.9658 94.2261 92.1975 89.8934 87.329 84.5211 81.4881 78.2499 74.8278 71.2441 67.5222 63.6867 59.7625 55.7755 51.7517 47.7177 43.6999 39.7248 35.8184 32.0066 28.3142 24.7656 21.3839 18.1912 15.2083 12.4546 9.9479 7.7042 5.738 4.062 2.6867 1.6211 0.872 0.4443 0.3409 0.5607 1.1003 1.9566 3.1239 4.5946 6.3591 8.4058 10.7213 13.2904 16.0963 19.1208 22.3442 25.7458 29.3036 32.9948 36.7956 40.6818 44.6284 48.6104 52.6021 56.578 60.5128 64.3811 68.1583 71.82 75.3427 78.7038 81.8818 84.8561 87.6078 90.1192 92.3743 94.3585 96.0594 97.4659 98.5693 99.3624 99.8404 100.0