<?xml version="1.0"?>
<VTKFile type="UnstructuredGrid" version="1.0" byte_order="LittleEndian">
  <UnstructuredGrid>
    <Piece NumberOfPoints="54" NumberOfCells="26">
      <PointData Scalars="scalars">
        <DataArray type="Float32" Name="cp1" format="ascii">
0.0 0.0 0.0 0.0 0.0 0.0 0.0 0.0 0.0 0.0 0.0 0.0 0.0 0.0 0.0 0.0 0.0 0.0 0.0 0.0 0.0 0.0 0.0 0.0 0.0 0.0 0.0 0.0 0.0 0.0 0.0 0.0 0.0 0.0 0.0 0.0 0.0 0.0 0.0 0.0 0.0 0.0 0.0 0.0 0.0 0.0 0.0 0.0 0.0 0.0 0.0 0.0 0.0 0.0
        </DataArray>
        <DataArray type="Float32" Name="cp2" format="ascii">
0.0 0.0 0.0 0.0 0.0 0.0 0.0 0.0 0.0 0.0 0.0 0.0 0.0 0.0 0.0 0.0 0.0 0.0 0.0 0.0 0.0 0.0 0.0 0.0 0.0 0.0 0.0 0.0 0.0 0.0 0.0 0.0 0.0 0.0 0.0 0.0 0.0 0.0 0.0 0.0 0.0 0.0 0.0 0.0 0.0 0.0 0.0 0.0 0.0 0.0 0.0 0.0 0.0 0.0
        </DataArray>
        <DataArray type="Float32" Name="cp3" format="ascii">
0.0 0.0 0.0 0.0 0.0 0.0 0.0 0.0 0.0 0.0 0.0 0.0 0.0 0.0 0.0 0.0 0.0 0.0 0.0 0.0 0.0 0.0 0.0 0.0 0.0 0.0 0.0 0.0 0.0 0.0 0.0 0.0 0.0 0.0 0.0 0.0 0.0 0.0 0.0 0.0 0.0 0.0 0.0 0.0 0.0 0.0 0.0 0.0 0.0 0.0 0.0 0.0 0.0 0.0
        </DataArray>
      </PointData>
      <Points>
        <DataArray type="Float32" Name="network3" NumberOfComponents="3" format="ascii">
0.5871 0.0 -0.0438
7060.0 0.0 -0.0438
0.5872 0.0247 -0.0412
7060.0 0.0247 -0.0412
0.5872 0.0495 -0.0386
7060.0 0.0495 -0.0386
0.5872 0.0742 -0.036
7060.0 0.0742 -0.036
0.5873 0.0972 -0.0335
7060.0 0.0972 -0.0335
0.5873 0.1202 -0.0309
7060.0 0.1202 -0.0309
0.5874 0.1431 -0.0284
7060.0 0.1431 -0.0284
0.5874 0.1661 -0.0258
7060.0 0.1661 -0.0258
0.5874 0.1891 -0.0233
7060.0 0.1891 -0.0233
0.5875 0.2121 -0.0208
7060.0 0.2121 -0.0208
0.5875 0.2351 -0.0182
7060.0 0.2351 -0.0182
0.5951 0.257 -0.0162
7060.0 0.257 -0.0162
0.6026 0.2789 -0.0142
7060.0 0.2789 -0.0142
0.6102 0.3008 -0.0122
7060.0 0.3008 -0.0122
0.6177 0.3227 -0.0102
7060.0 0.3227 -0.0102
0.6253 0.3446 -0.0081
7060.0 0.3446 -0.0081
0.6328 0.3665 -0.0061
7060.0 0.3665 -0.0061
0.6404 0.3884 -0.0041
7060.0 0.3884 -0.0041
0.6479 0.4103 -0.0021
7060.0 0.4103 -0.0021
0.6555 0.4323 -0.0001
7060.0 0.4323 -0.0001
0.663 0.4542 0.002
7060.0 0.4542 0.002
0.6706 0.4761 0.004
7060.0 0.4761 0.004
0.6782 0.498 0.0061
7060.0 0.498 0.0061
0.6857 0.5199 0.0081
7060.0 0.5199 0.0081
0.6933 0.5418 0.0101
7060.0 0.5418 0.0101
0.7008 0.5637 0.0122
7060.0 0.5637 0.0122
0.7084 0.5857 0.0142
7060.0 0.5857 0.0142
        </DataArray>
      </Points>
      <Cells>
        <DataArray type="Int32" Name="connectivity" format="ascii">
0 2 3 1
2 4 5 3
4 6 7 5
6 8 9 7
8 10 11 9
10 12 13 11
12 14 15 13
14 16 17 15
16 18 19 17
18 20 21 19
20 22 23 21
22 24 25 23
24 26 27 25
26 28 29 27
28 30 31 29
30 32 33 31
32 34 35 33
34 36 37 35
36 38 39 37
38 40 41 39
40 42 43 41
42 44 45 43
44 46 47 45
46 48 49 47
48 50 51 49
50 52 53 51
        </DataArray>
        <DataArray type="Int32" Name="offsets" format="ascii">
4 8 12 16 20 24 28 32 36 40 44 48 52 56 60 64 68 72 76 80 84 88 92 96 100 104
        </DataArray>
        <DataArray type="Int32" Name="types" format="ascii">
9 9 9 9 9 9 9 9 9 9 9 9 9 9 9 9 9 9 9 9 9 9 9 9 9 9
        </DataArray>
      </Cells>
    </Piece>
  </UnstructuredGrid>
</VTKFile>
