<?xml version="1.0"?>
<VTKFile type="UnstructuredGrid" version="1.0" byte_order="LittleEndian">
  <UnstructuredGrid>
    <Piece NumberOfPoints="2187" NumberOfCells="2080">
      <PointData Scalars="scalars">
        <DataArray type="Float32" Name="cp1" format="ascii">
0.27347 0.0218439 -0.13491 -0.187255 -0.235447 -0.277379 -0.31786 -0.339776 -0.374231 -0.399826 -0.393832 -0.406479 -0.432478 -0.445428 -0.432019 -0.430153 -0.458602 -0.470936 -0.482275 -0.485044 -0.504748 -0.526456 -0.521645 -0.537371 -0.547404 -0.540941 -0.56052 -0.565204 -0.556526 -0.576645 -0.55555 -0.524298 -0.547517 -0.575831 -0.647743 -0.793158 -0.585531 0.273263 1.08551 1.33816 1.33168 1.3051 1.10875 0.753894 0.424463 0.233173 0.0790549 -0.0125482 -0.0403751 -0.0939643 -0.128844 -0.156848 -0.17924 -0.186325 -0.207187 -0.220259 -0.225783 -0.227914 -0.237471 -0.242611 -0.257715 -0.28607 -0.276426 -0.26192 -0.264974 -0.295845 -0.327594 -0.284874 -0.216342 -0.178351 -0.120854 -0.0508635 0.0396178 0.156033 0.241179 0.286499 0.303213 0.319746 0.321934 0.344807 0.404479 0.270741 0.0377785 -0.112767 -0.17393 -0.224879 -0.271122 -0.310323 -0.334447 -0.362715 -0.385097 -0.389943 -0.401285 -0.422164 -0.43753 -0.434639 -0.433407 -0.44964 -0.467991 -0.483549 -0.485976 -0.502622 -0.525115 -0.52998 -0.549351 -0.570439 -0.576206 -0.58728 -0.60391 -0.620716 -0.639441 -0.649705 -0.667283 -0.706498 -0.764256 -0.871395 -1.01646 -0.807206 0.00170073 0.777965 1.11874 1.15706 1.15142 1.00727 0.689697 0.372442 0.168969 0.0245548 -0.0669822 -0.117778 -0.16104 -0.183985 -0.216251 -0.233868 -0.235961 -0.248806 -0.253606 -0.258583 -0.265475 -0.271201 -0.267279 -0.275156 -0.29588 -0.290781 -0.282302 -0.281926 -0.300928 -0.316387 -0.273584 -0.213527 -0.171032 -0.108156 -0.0285427 0.0616831 0.167226 0.248246 0.290095 0.312616 0.332264 0.336926 0.360425 0.414494 0.267398 0.0284416 -0.117659 -0.168091 -0.221611 -0.270011 -0.306395 -0.331631 -0.358024 -0.378281 -0.388853 -0.398259 -0.414502 -0.43132 -0.436592 -0.437837 -0.447377 -0.46723 -0.488594 -0.49465 -0.50568 -0.523035 -0.537501 -0.563911 -0.594123 -0.612141 -0.617931 -0.639893 -0.67368 -0.690171 -0.728069 -0.778123 -0.815454 -0.885847 -1.03228 -1.26325 -1.12478 -0.240132 0.643596 1.02575 1.07073 1.08079 0.957151 0.660992 0.335284 0.112351 -0.0199069 -0.0981329 -0.163543 -0.20501 -0.222398 -0.262476 -0.279038 -0.274456 -0.274832 -0.273585 -0.288227 -0.299037 -0.298002 -0.280862 -0.282013 -0.309431 -0.306371 -0.292614 -0.287589 -0.306996 -0.319202 -0.267225 -0.208973 -0.168919 -0.100725 -0.0154034 0.0767436 0.182749 0.263523 0.298943 0.322775 0.344838 0.347073 0.369069 0.421959 0.257602 0.0199909 -0.120473 -0.164832 -0.223806 -0.270758 -0.306184 -0.339131 -0.361623 -0.379459 -0.399213 -0.40626 -0.411755 -0.424614 -0.439263 -0.452119 -0.459083 -0.47117 -0.493928 -0.510252 -0.514328 -0.524671 -0.556764 -0.58757 -0.609629 -0.63264 -0.641174 -0.669972 -0.712272 -0.720385 -0.768712 -0.830906 -0.863476 -0.944595 -1.09745 -1.35135 -1.26273 -0.393633 0.562296 0.968823 1.03998 1.07411 0.967772 0.676769 0.355744 0.117195 -0.01795 -0.0923991 -0.165977 -0.212305 -0.235963 -0.269101 -0.289327 -0.297493 -0.282793 -0.275794 -0.303332 -0.313388 -0.306141 -0.287628 -0.284085 -0.313963 -0.314117 -0.292851 -0.288078 -0.308432 -0.313852 -0.262423 -0.205485 -0.157805 -0.0912314 -0.014406 0.0805958 0.190239 0.270126 0.308109 0.331606 0.351376 0.359044 0.382612 0.429214 0.242046 0.00708092 -0.126465 -0.166008 -0.229998 -0.274716 -0.310509 -0.346871 -0.37073 -0.391636 -0.41369 -0.417533 -0.418872 -0.430875 -0.444622 -0.463478 -0.474383 -0.483906 -0.49924 -0.509382 -0.519173 -0.541426 -0.579922 -0.606007 -0.615402 -0.631387 -0.653211 -0.696223 -0.734783 -0.737975 -0.783814 -0.847017 -0.899648 -0.985734 -1.12358 -1.37091 -1.31526 -0.460572 0.49712 0.925854 1.03444 1.06897 0.947732 0.639138 0.343623 0.117885 -0.0240064 -0.101347 -0.169909 -0.21336 -0.241366 -0.258787 -0.276571 -0.297013 -0.290375 -0.283898 -0.304923 -0.309603 -0.300268 -0.28911 -0.290166 -0.315382 -0.314032 -0.293924 -0.287123 -0.297166 -0.301657 -0.259235 -0.198481 -0.147 -0.0861801 -0.0126352 0.0866778 0.196586 0.275239 0.318828 0.341591 0.360815 0.37264 0.394191 0.437417 0.235515 0.000627969 -0.134265 -0.171709 -0.242723 -0.290102 -0.318914 -0.352805 -0.38658 -0.40994 -0.423196 -0.429248 -0.433401 -0.443474 -0.458993 -0.475557 -0.483565 -0.499061 -0.508351 -0.509671 -0.528791 -0.554918 -0.588037 -0.608596 -0.615534 -0.633922 -0.668155 -0.71714 -0.740986 -0.742288 -0.788312 -0.85421 -0.923978 -0.99895 -1.12289 -1.35038 -1.30883 -0.54454 0.409848 0.889357 1.02238 1.06866 0.918085 0.606196 0.328768 0.111347 -0.0287153 -0.103015 -0.16066 -0.202682 -0.235597 -0.250926 -0.260591 -0.270363 -0.291033 -0.297872 -0.298185 -0.298297 -0.286353 -0.279882 -0.297381 -0.32043 -0.308501 -0.290092 -0.276953 -0.275555 -0.290735 -0.256394 -0.188236 -0.144526 -0.0880669 -0.00157112 0.0970285 0.1984 0.278461 0.325956 0.355776 0.380546 0.386127 0.396433 0.428425 0.249506 0.000160745 -0.140313 -0.180803 -0.254242 -0.308815 -0.335712 -0.365439 -0.40151 -0.429516 -0.438749 -0.446667 -0.448844 -0.452419 -0.480773 -0.497173 -0.48721 -0.500695 -0.515053 -0.525305 -0.547757 -0.557211 -0.582744 -0.602997 -0.613023 -0.645458 -0.676873 -0.713413 -0.733052 -0.738769 -0.77566 -0.839429 -0.92354 -0.999898 -1.13647 -1.32709 -1.26996 -0.613749 0.308415 0.842733 1.00616 1.06346 0.893573 0.567151 0.290373 0.0905453 -0.0379977 -0.102292 -0.139356 -0.186002 -0.225738 -0.24082 -0.245071 -0.2445 -0.277811 -0.290584 -0.281768 -0.291317 -0.283777 -0.27404 -0.298794 -0.318219 -0.295733 -0.278239 -0.261067 -0.258211 -0.282862 -0.250069 -0.178126 -0.139021 -0.0847162 0.00759547 0.101076 0.196444 0.2823 0.337616 0.37448 0.400584 0.397125 0.392443 0.402567 0.240238 -0.0141153 -0.155666 -0.192619 -0.261162 -0.322401 -0.35735 -0.387131 -0.419243 -0.452049 -0.461995 -0.467101 -0.4757 -0.472818 -0.493758 -0.511999 -0.492438 -0.504438 -0.530229 -0.538682 -0.555435 -0.565298 -0.584499 -0.594822 -0.601444 -0.644513 -0.676383 -0.693187 -0.712777 -0.722693 -0.75532 -0.823018 -0.909599 -1.01689 -1.15606 -1.26837 -1.1893 -0.640034 0.255418 0.828505 0.986405 1.06847 0.84807 0.520526 0.262235 0.0776245 -0.0338344 -0.0890691 -0.12256 -0.171033 -0.202141 -0.218276 -0.228439 -0.226198 -0.253883 -0.264965 -0.260541 -0.285332 -0.294478 -0.275964 -0.285076 -0.302388 -0.284902 -0.269922 -0.248905 -0.245447 -0.261027 -0.229939 -0.175031 -0.134596 -0.0800427 0.00683021 0.099299 0.198912 0.2938 0.35423 0.390274 0.415015 0.410761 0.397287 0.391991 0.198007 -0.0519956 -0.188051 -0.210036 -0.275895 -0.337321 -0.380117 -0.4195 -0.447758 -0.470548 -0.482804 -0.48992 -0.510225 -0.505601 -0.497589 -0.521067 -0.516531 -0.52196 -0.548434 -0.545566 -0.54905 -0.569133 -0.589195 -0.588125 -0.582114 -0.621138 -0.670052 -0.685022 -0.685809 -0.686235 -0.727904 -0.823389 -0.89991 -1.00344 -1.1187 -1.16565 -1.11557 -0.683441 0.162196 0.763538 0.979472 1.05602 0.805038 0.445413 0.22325 0.0600109 -0.0251597 -0.059644 -0.104143 -0.154265 -0.16657 -0.18962 -0.212695 -0.206884 -0.230022 -0.250109 -0.249468 -0.265572 -0.285285 -0.278164 -0.269654 -0.282164 -0.279991 -0.258712 -0.23541 -0.237069 -0.230797 -0.198573 -0.173963 -0.136744 -0.0725894 0.00934688 0.102551 0.208079 0.303581 0.361859 0.402771 0.436333 0.434444 0.41442 0.405647 0.193825 -0.0719698 -0.216789 -0.238922 -0.303922 -0.362762 -0.398251 -0.445128 -0.486693 -0.504287 -0.515104 -0.522744 -0.535596 -0.533677 -0.513882 -0.545105 -0.557746 -0.531511 -0.547254 -0.560915 -0.555967 -0.563677 -0.577484 -0.579967 -0.57678 -0.604245 -0.659114 -0.676541 -0.662875 -0.659459 -0.692725 -0.790095 -0.85286 -0.931985 -1.04105 -1.07677 -1.03549 -0.678444 0.0471505 0.694874 0.966764 1.04857 0.751776 0.371916 0.171146 0.0515646 -0.000559975 -0.0315004 -0.091652 -0.133595 -0.132306 -0.154361 -0.178882 -0.179531 -0.205207 -0.232428 -0.248407 -0.253004 -0.257526 -0.270614 -0.261177 -0.26154 -0.266718 -0.236859 -0.220091 -0.234226 -0.212716 -0.177836 -0.171265 -0.133877 -0.0650777 0.00987639 0.107677 0.21504 0.303705 0.3655 0.419169 0.463541 0.458437 0.42651 0.401614 0.12444 -0.135119 -0.257057 -0.275015 -0.336027 -0.392899 -0.418835 -0.465725 -0.529663 -0.546504 -0.545456 -0.554604 -0.556195 -0.545422 -0.531993 -0.565878 -0.575115 -0.525097 -0.548809 -0.580375 -0.565522 -0.562654 -0.568456 -0.576383 -0.586258 -0.610301 -0.639071 -0.634674 -0.641528 -0.660662 -0.676499 -0.746391 -0.798702 -0.872938 -0.989738 -1.01529 -0.907889 -0.579199 0.0458005 0.723632 1.05715 1.02038 0.63864 0.272564 0.120187 0.0730386 0.0345881 -0.0248105 -0.0820985 -0.0980072 -0.0885601 -0.107989 -0.13853 -0.155293 -0.17507 -0.198932 -0.240171 -0.254172 -0.233216 -0.244936 -0.252895 -0.248645 -0.248758 -0.222649 -0.20933 -0.218942 -0.200624 -0.175219 -0.169982 -0.134348 -0.0756848 -0.012789 0.0876665 0.19406 0.282947 0.353593 0.414433 0.465761 0.470663 0.436496 0.391421 0.202767 -0.064347 -0.22014 -0.253472 -0.303316 -0.362328 -0.402336 -0.45443 -0.513491 -0.534893 -0.541801 -0.552746 -0.554548 -0.547995 -0.538373 -0.56052 -0.567406 -0.522471 -0.542355 -0.570646 -0.557039 -0.55654 -0.563886 -0.573714 -0.583557 -0.606926 -0.61141 -0.597374 -0.630592 -0.654557 -0.674577 -0.733645 -0.776332 -0.86426 -0.967077 -0.98438 -0.884684 -0.554372 0.00621005 0.642768 1.07444 1.06421 0.674667 0.285408 0.133147 0.0843268 0.033945 -0.0265659 -0.0572828 -0.0578905 -0.0586603 -0.0907891 -0.129422 -0.145764 -0.159412 -0.184017 -0.223642 -0.243267 -0.216313 -0.223218 -0.249403 -0.240175 -0.227209 -0.212214 -0.19296 -0.183854 -0.170033 -0.155926 -0.141229 -0.102817 -0.0453581 0.030021 0.124009 0.223285 0.307183 0.371538 0.420147 0.455442 0.456155 0.416508 0.361446 0.154557 -0.0832474 -0.221876 -0.251185 -0.293922 -0.343417 -0.401694 -0.457116 -0.488051 -0.51391 -0.54037 -0.539807 -0.531031 -0.539481 -0.546027 -0.558633 -0.561286 -0.52361 -0.519634 -0.546695 -0.558028 -0.548368 -0.547641 -0.564314 -0.572433 -0.592784 -0.59752 -0.599088 -0.63706 -0.661708 -0.683152 -0.720422 -0.776691 -0.886394 -0.957492 -0.939361 -0.848528 -0.53544 0.0146914 0.686674 1.12338 1.05881 0.635373 0.319973 0.145717 0.0610659 0.0249623 -0.00731781 -0.0328561 -0.0379963 -0.0519465 -0.0976572 -0.124385 -0.134476 -0.15524 -0.170234 -0.197939 -0.227132 -0.21512 -0.21951 -0.23936 -0.222332 -0.2089 -0.202674 -0.179555 -0.163547 -0.154443 -0.141426 -0.121247 -0.0860329 -0.0321552 0.0428318 0.122862 0.210768 0.302963 0.373827 0.420502 0.451755 0.455989 0.420477 0.369037 0.145773 -0.081444 -0.214862 -0.25849 -0.29837 -0.334203 -0.402558 -0.455676 -0.472172 -0.50181 -0.543975 -0.540858 -0.517695 -0.527017 -0.53767 -0.545675 -0.555883 -0.523707 -0.501132 -0.535579 -0.569589 -0.552282 -0.546075 -0.564912 -0.559986 -0.569191 -0.586341 -0.601587 -0.632574 -0.664286 -0.669138 -0.69062 -0.798263 -0.914285 -0.937066 -0.902106 -0.823143 -0.533479 0.00418452 0.721333 1.09782 1.03452 0.653232 0.331701 0.155191 0.0532059 0.0444816 0.0116529 -0.0388302 -0.0458265 -0.0507018 -0.0976696 -0.105878 -0.117524 -0.158628 -0.165143 -0.178394 -0.215008 -0.222048 -0.222843 -0.214374 -0.200661 -0.203322 -0.20014 -0.180234 -0.157651 -0.14304 -0.131276 -0.115586 -0.0801718 -0.0231395 0.0463169 0.122549 0.203783 0.295769 0.376062 0.427653 0.454767 0.457387 0.425812 0.381057 0.124904 -0.0845039 -0.203709 -0.246119 -0.29795 -0.337598 -0.402356 -0.450161 -0.470506 -0.497622 -0.542286 -0.541698 -0.516121 -0.524661 -0.519343 -0.52217 -0.546648 -0.521848 -0.503151 -0.533895 -0.565603 -0.558733 -0.548354 -0.568463 -0.565089 -0.552391 -0.561118 -0.594155 -0.634213 -0.643958 -0.633079 -0.683453 -0.825123 -0.911576 -0.897497 -0.90194 -0.831443 -0.553912 0.0086321 0.73896 1.10954 1.05778 0.620215 0.328341 0.150546 0.0788395 0.0705634 0.0171084 -0.0451014 -0.0602 -0.0498156 -0.0927788 -0.098759 -0.103256 -0.156158 -0.17306 -0.178551 -0.200649 -0.216165 -0.223396 -0.20675 -0.198023 -0.2007 -0.194242 -0.182222 -0.153039 -0.133144 -0.121958 -0.110704 -0.0805389 -0.0254911 0.0403804 0.122973 0.211789 0.296736 0.372054 0.424688 0.449397 0.450316 0.426077 0.394225 0.137423 -0.0788975 -0.191507 -0.220296 -0.288415 -0.357205 -0.408689 -0.437978 -0.464012 -0.49439 -0.532486 -0.53422 -0.512054 -0.520334 -0.514046 -0.510071 -0.535854 -0.523001 -0.51784 -0.538947 -0.548513 -0.545672 -0.529245 -0.54793 -0.566876 -0.562766 -0.567978 -0.596497 -0.63039 -0.630959 -0.636596 -0.68907 -0.811071 -0.888442 -0.90532 -0.931588 -0.813816 -0.542313 -0.0024076 0.746175 1.11093 1.04313 0.64441 0.300292 0.138957 0.0977927 0.0813759 0.0249393 -0.0418928 -0.0663391 -0.0440392 -0.081553 -0.117388 -0.117764 -0.1327 -0.163445 -0.194223 -0.202125 -0.20523 -0.218677 -0.218105 -0.204409 -0.188281 -0.184459 -0.179516 -0.151107 -0.133228 -0.121551 -0.106596 -0.0787098 -0.0252067 0.0383416 0.117167 0.212128 0.300984 0.371459 0.422927 0.446365 0.442481 0.417904 0.38475 0.172861 -0.0690526 -0.195666 -0.214793 -0.279502 -0.359968 -0.402219 -0.431896 -0.466838 -0.483441 -0.510251 -0.532375 -0.511564 -0.510847 -0.524437 -0.518624 -0.52242 -0.519311 -0.524872 -0.533234 -0.534101 -0.529885 -0.528239 -0.548022 -0.551915 -0.560682 -0.580546 -0.59372 -0.602646 -0.618928 -0.680544 -0.699096 -0.754123 -0.868729 -0.942431 -0.953818 -0.790729 -0.457886 0.100505 0.720192 1.11706 1.04248 0.673325 0.308213 0.135297 0.0883407 0.0669217 0.0166656 -0.0514146 -0.0689037 -0.0339931 -0.0580114 -0.122583 -0.143656 -0.120864 -0.14387 -0.199686 -0.213955 -0.207874 -0.206519 -0.212613 -0.1978 -0.183378 -0.197642 -0.185335 -0.149974 -0.134573 -0.124433 -0.10937 -0.0784388 -0.0149945 0.0444551 0.106768 0.204249 0.305586 0.3755 0.419935 0.442863 0.443342 0.41507 0.374046 0.162121 -0.0768356 -0.204552 -0.224738 -0.283244 -0.34491 -0.379246 -0.430189 -0.482541 -0.480104 -0.49514 -0.528076 -0.510928 -0.502539 -0.526941 -0.535691 -0.516874 -0.51343 -0.517639 -0.507741 -0.53647 -0.538894 -0.527146 -0.558342 -0.557441 -0.544461 -0.551608 -0.583 -0.602174 -0.604842 -0.675277 -0.705763 -0.733375 -0.845596 -0.926105 -0.95044 -0.827156 -0.452429 0.103193 0.743053 1.12002 1.05225 0.636603 0.318899 0.13923 0.061535 0.0510801 0.00531554 -0.0505431 -0.0607205 -0.0354473 -0.0511627 -0.107411 -0.143784 -0.133963 -0.148757 -0.190951 -0.215411 -0.221621 -0.202485 -0.202175 -0.196069 -0.187225 -0.208575 -0.188281 -0.146247 -0.129673 -0.126518 -0.117444 -0.0772108 -0.0133826 0.0430165 0.106337 0.205487 0.306171 0.377284 0.416635 0.440321 0.446509 0.417962 0.374151 0.13443 -0.0905264 -0.214774 -0.233506 -0.284662 -0.329773 -0.370208 -0.437218 -0.483257 -0.48672 -0.495373 -0.513606 -0.51916 -0.505183 -0.506515 -0.530276 -0.513222 -0.514341 -0.524921 -0.498219 -0.531949 -0.535413 -0.502142 -0.535804 -0.560935 -0.557601 -0.558054 -0.591779 -0.616536 -0.60504 -0.632194 -0.687656 -0.742734 -0.795941 -0.860764 -0.936324 -0.830634 -0.453029 0.113935 0.760892 1.09361 1.05015 0.640185 0.317444 0.128919 0.033609 0.0448772 0.0113156 -0.0300784 -0.0413656 -0.0461277 -0.0747228 -0.115211 -0.134825 -0.145972 -0.16663 -0.181237 -0.206107 -0.231703 -0.215129 -0.203334 -0.200093 -0.196164 -0.206816 -0.182495 -0.143529 -0.125892 -0.130187 -0.123653 -0.0719876 -0.0184147 0.0378514 0.120696 0.211068 0.292481 0.372139 0.427071 0.448903 0.444523 0.418109 0.385274 0.163071 -0.0805871 -0.219239 -0.242963 -0.291799 -0.328807 -0.366504 -0.43011 -0.473982 -0.500606 -0.500903 -0.501716 -0.524816 -0.512874 -0.494816 -0.507293 -0.497607 -0.514869 -0.544296 -0.506747 -0.49818 -0.50304 -0.506347 -0.536082 -0.544597 -0.553754 -0.571498 -0.592008 -0.594779 -0.598065 -0.625517 -0.690224 -0.747542 -0.742691 -0.809903 -0.927528 -0.838595 -0.47222 0.145213 0.822899 1.09806 1.06275 0.62128 0.298833 0.114108 0.0274942 0.0309337 0.00761179 -0.0257246 -0.0455083 -0.0549769 -0.0948682 -0.127324 -0.132567 -0.155067 -0.171728 -0.175447 -0.200395 -0.233231 -0.232412 -0.206665 -0.194707 -0.204692 -0.210383 -0.182389 -0.148254 -0.135973 -0.133509 -0.114628 -0.0675833 -0.0271133 0.0366215 0.133111 0.206739 0.276693 0.366597 0.436827 0.454079 0.438887 0.418841 0.402423 0.16899 -0.0685642 -0.201724 -0.232647 -0.299717 -0.342475 -0.360029 -0.404897 -0.46316 -0.502994 -0.504963 -0.502329 -0.515341 -0.512714 -0.500164 -0.487155 -0.472873 -0.506655 -0.551496 -0.511904 -0.476255 -0.492499 -0.526836 -0.548584 -0.538116 -0.527263 -0.534664 -0.573551 -0.582543 -0.564388 -0.60791 -0.711651 -0.766397 -0.715863 -0.801486 -0.915642 -0.78529 -0.4662 0.130734 0.839184 1.1085 1.04416 0.607144 0.242371 0.0854643 0.0549516 0.0295127 -0.0137811 -0.0538527 -0.0779207 -0.0655642 -0.103169 -0.127305 -0.123558 -0.156842 -0.181073 -0.18536 -0.204247 -0.221694 -0.224156 -0.209982 -0.206247 -0.212735 -0.21195 -0.188249 -0.156035 -0.148513 -0.136448 -0.101837 -0.0715742 -0.0396571 0.0416178 0.135855 0.197649 0.274125 0.367024 0.432895 0.453609 0.436761 0.415405 0.399749 0.150939 -0.0697299 -0.187777 -0.217293 -0.288626 -0.334737 -0.355933 -0.407161 -0.459746 -0.487463 -0.497721 -0.496667 -0.503523 -0.507783 -0.493573 -0.476936 -0.45569 -0.488171 -0.545249 -0.517161 -0.48827 -0.501852 -0.509643 -0.512298 -0.524263 -0.532289 -0.537851 -0.573917 -0.588395 -0.547629 -0.555213 -0.666059 -0.753248 -0.723127 -0.802247 -0.881303 -0.730978 -0.394054 0.163966 0.874599 1.1164 1.00567 0.618428 0.214754 0.0595687 0.058852 0.0242046 -0.030011 -0.0605431 -0.0834752 -0.0790538 -0.127818 -0.144482 -0.117789 -0.158282 -0.200521 -0.196048 -0.207591 -0.213313 -0.208596 -0.222645 -0.228638 -0.216859 -0.212039 -0.193698 -0.161026 -0.155922 -0.143836 -0.0993084 -0.0719064 -0.0483941 0.0335428 0.124346 0.190012 0.281615 0.372107 0.41954 0.446504 0.43782 0.408802 0.381786 0.154571 -0.0649635 -0.176538 -0.204779 -0.281454 -0.323127 -0.345212 -0.407916 -0.458514 -0.472454 -0.483479 -0.470643 -0.480121 -0.498238 -0.483736 -0.489353 -0.470945 -0.462468 -0.507392 -0.524408 -0.508798 -0.483996 -0.479107 -0.490768 -0.501649 -0.524921 -0.548789 -0.557693 -0.569827 -0.576797 -0.557172 -0.57837 -0.674043 -0.720887 -0.771996 -0.843729 -0.742635 -0.354119 0.302341 0.785911 1.10666 1.0288 0.567256 0.204633 0.0521729 0.0148689 -0.0203321 -0.0489947 -0.0633506 -0.0809437 -0.090299 -0.143505 -0.15569 -0.130328 -0.169723 -0.210942 -0.210045 -0.218855 -0.223844 -0.22102 -0.231384 -0.22812 -0.216264 -0.218833 -0.202899 -0.172044 -0.166225 -0.154743 -0.104189 -0.068716 -0.0450637 0.0253066 0.107508 0.182293 0.286707 0.379141 0.411061 0.431041 0.433735 0.402876 0.361175 0.134758 -0.0777917 -0.179021 -0.196416 -0.278075 -0.328147 -0.333967 -0.382489 -0.445898 -0.466561 -0.468895 -0.452981 -0.468079 -0.489429 -0.468226 -0.487728 -0.499708 -0.441308 -0.447113 -0.520599 -0.499973 -0.443802 -0.468038 -0.500303 -0.500665 -0.494774 -0.501091 -0.518846 -0.549232 -0.590985 -0.58448 -0.552796 -0.630978 -0.703846 -0.72255 -0.756353 -0.703375 -0.269175 0.322557 0.820385 1.10929 0.972591 0.523193 0.202206 0.0232136 -0.0500479 -0.055555 -0.0729667 -0.101521 -0.101884 -0.0977386 -0.128799 -0.14198 -0.153043 -0.185631 -0.213176 -0.243625 -0.245693 -0.244008 -0.248359 -0.230962 -0.220454 -0.229743 -0.229769 -0.204574 -0.179513 -0.16944 -0.166382 -0.122704 -0.0759307 -0.0448061 0.0201862 0.107616 0.187746 0.27898 0.371308 0.413705 0.432395 0.438369 0.407086 0.364775 0.141565 -0.0730173 -0.181384 -0.186934 -0.250052 -0.302351 -0.315179 -0.363599 -0.435385 -0.460823 -0.451788 -0.43932 -0.452169 -0.472978 -0.447285 -0.450094 -0.488548 -0.430657 -0.411945 -0.48177 -0.451983 -0.432729 -0.477362 -0.471209 -0.477238 -0.493356 -0.495865 -0.513544 -0.519086 -0.525841 -0.546753 -0.562763 -0.634926 -0.684255 -0.641821 -0.639463 -0.618137 -0.254275 0.363543 0.874925 1.11683 0.938416 0.460346 0.133941 -0.0273071 -0.0727363 -0.0666301 -0.106595 -0.128713 -0.106831 -0.114754 -0.15037 -0.163314 -0.189378 -0.205736 -0.212838 -0.265455 -0.279841 -0.268703 -0.267473 -0.247942 -0.22996 -0.243395 -0.24571 -0.214002 -0.197545 -0.17068 -0.163112 -0.140388 -0.0873942 -0.0553953 0.00719867 0.121107 0.217329 0.270738 0.349855 0.420015 0.449908 0.446732 0.407439 0.377144 0.146338 -0.0297017 -0.128345 -0.151506 -0.203815 -0.2384 -0.255258 -0.318922 -0.377502 -0.390628 -0.384777 -0.378043 -0.375112 -0.399547 -0.396128 -0.382665 -0.40579 -0.370481 -0.348763 -0.381472 -0.376051 -0.401892 -0.435927 -0.400044 -0.400863 -0.444032 -0.470031 -0.473923 -0.46186 -0.451385 -0.472923 -0.530125 -0.598333 -0.632761 -0.583284 -0.567417 -0.496404 -0.209938 0.415158 0.910362 1.01891 0.855217 0.420387 -0.00368351 -0.119425 -0.0888061 -0.109725 -0.187774 -0.183153 -0.139474 -0.166533 -0.216097 -0.216966 -0.220532 -0.222166 -0.226436 -0.274411 -0.298322 -0.27692 -0.257715 -0.265342 -0.24703 -0.235622 -0.241616 -0.209635 -0.189696 -0.162569 -0.151488 -0.140408 -0.0903872 -0.056427 -0.00949222 0.110944 0.209194 0.247076 0.306023 0.377907 0.409344 0.39277 0.351545 0.332264 0.125233 -0.0118676 -0.0722194 -0.0865273 -0.160951 -0.171824 -0.159754 -0.242563 -0.294623 -0.276221 -0.280264 -0.286939 -0.257344 -0.291952 -0.317484 -0.293163 -0.302694 -0.263339 -0.233312 -0.258051 -0.282676 -0.329566 -0.356212 -0.316584 -0.300928 -0.341911 -0.383725 -0.384077 -0.400263 -0.398941 -0.391136 -0.469506 -0.541071 -0.589221 -0.563937 -0.564231 -0.416446 -0.0579409 0.436131 0.970316 0.966294 0.723859 0.291718 -0.214426 -0.284687 -0.114925 -0.170221 -0.321421 -0.293312 -0.190766 -0.231853 -0.301818 -0.266885 -0.238743 -0.232551 -0.252508 -0.297822 -0.314569 -0.269952 -0.220777 -0.278637 -0.264669 -0.210935 -0.226605 -0.177649 -0.145209 -0.138781 -0.148644 -0.149662 -0.0875549 -0.052776 -0.0322531 0.0778127 0.183257 0.203049 0.244225 0.306076 0.337957 0.301229 0.255428 0.251767
        </DataArray>
        <DataArray type="Float32" Name="cp2" format="ascii">