<?xml version="1.0"?>
<VTKFile type="UnstructuredGrid" version="1.0" byte_order="LittleEndian">
  <UnstructuredGrid>
    <Piece NumberOfPoints="480" NumberOfCells="429">
      <PointData Scalars="scalars">
        <DataArray type="Float32" Name="cp1" format="ascii">
-48.4197 -28.0048 -6.43346 -3.06911 -1.63692 -0.952337 -0.602047 -0.4103 -0.299207 -0.232647 -0.192072 -0.167453 -0.153369 -0.14647 -0.144729 -0.146949 -0.152353 -0.160417 -0.17084 -0.183357 -0.197749 -0.213854 -0.231467 -0.250331 -0.270252 -0.290944 -0.31217 -0.333721 -0.355383 -0.376984 -0.398381 -0.419424 -0.439791 -0.458408 -0.473046 -0.47831 -0.456045 -0.308603 0.215222 0.839319 -30.2603 -17.0769 -4.80361 -2.35685 -1.39691 -0.914849 -0.643432 -0.479327 -0.374965 -0.306381 -0.260383 -0.229281 -0.208525 -0.195157 -0.187328 -0.183836 -0.183858 -0.18683 -0.192374 -0.200177 -0.209981 -0.221573 -0.234711 -0.249144 -0.264639 -0.280916 -0.297729 -0.314857 -0.332085 -0.349238 -0.366188 -0.38281 -0.398776 -0.413052 -0.422972 -0.420699 -0.380535 -0.216677 0.257172 0.905222 -14.8164 -9.5783 -3.22837 -2.00535 -1.36765 -0.976986 -0.727842 -0.563702 -0.452399 -0.375225 -0.320766 -0.281944 -0.254277 -0.234745 -0.221409 -0.212948 -0.208402 -0.207114 -0.208645 -0.212619 -0.218716 -0.226677 -0.23623 -0.247109 -0.259042 -0.271738 -0.28494 -0.2984 -0.311889 -0.325215 -0.338243 -0.350892 -0.362986 -0.373854 -0.381789 -0.381548 -0.353079 -0.216959 0.264928 0.965294 -18.9793 -11.7599 -4.67502 -2.70993 -1.74497 -1.20225 -0.874372 -0.665499 -0.526894 -0.432002 -0.365375 -0.317873 -0.283703 -0.259125 -0.241754 -0.229919 -0.222431 -0.21852 -0.217664 -0.219384 -0.223295 -0.229103 -0.236509 -0.24522 -0.25492 -0.26532 -0.276148 -0.287112 -0.297959 -0.308471 -0.31847 -0.327816 -0.336289 -0.343221 -0.346973 -0.342659 -0.311613 -0.185667 0.279667 0.958637 -21.2476 -13.0915 -5.09694 -2.92364 -1.86698 -1.27826 -0.92517 -0.701597 -0.553955 -0.453119 -0.382423 -0.332014 -0.295639 -0.269363 -0.250594 -0.237491 -0.228845 -0.22386 -0.221943 -0.222573 -0.225345 -0.229956 -0.236095 -0.24345 -0.251683 -0.260519 -0.269672 -0.278812 -0.287669 -0.296011 -0.3036 -0.310229 -0.315576 -0.318868 -0.318289 -0.308726 -0.271313 -0.142643 0.30845 0.962442 -22.1392 -13.5853 -5.21664 -2.95866 -1.87404 -1.27558 -0.919072 -0.694854 -0.547622 -0.447572 -0.377856 -0.328354 -0.292789 -0.2672 -0.248928 -0.236181 -0.227794 -0.222949 -0.221027 -0.221517 -0.224014 -0.228221 -0.233832 -0.24051 -0.247914 -0.255785 -0.263818 -0.271644 -0.278998 -0.285605 -0.291136 -0.295335 -0.29774 -0.297306 -0.291866 -0.275707 -0.228994 -0.0892772 0.351757 0.977291 -21.482 -13.1475 -4.99733 -2.81484 -1.77235 -1.20037 -0.861705 -0.650003 -0.511824 -0.418649 -0.354312 -0.308982 -0.276733 -0.253776 -0.2376 -0.226589 -0.219617 -0.215888 -0.214834 -0.21596 -0.218895 -0.223359 -0.229036 -0.235583 -0.24268 -0.250068 -0.257404 -0.264311 -0.270501 -0.275647 -0.279357 -0.281264 -0.280694 -0.276288 -0.265371 -0.241318 -0.182813 -0.025339 0.408706 1.00245 -19.4081 -11.8713 -4.4905 -2.52102 -1.58127 -1.06641 -0.763076 -0.574731 -0.452754 -0.371374 -0.315768 -0.277041 -0.249954 -0.23112 -0.218291 -0.210025 -0.2053 -0.203423 -0.203887 -0.206242 -0.210175 -0.215398 -0.221599 -0.228463 -0.235682 -0.242962 -0.249939 -0.256241 -0.261527 -0.265427 -0.267471 -0.267106 -0.263445 -0.254758 -0.237681 -0.204423 -0.131801 0.0489361 0.4777 1.03569 -16.3101 -10.0085 -3.79382 -2.12421 -1.32722 -0.891903 -0.636559 -0.479176 -0.378266 -0.311805 -0.267039 -0.236555 -0.215898 -0.202143 -0.193409 -0.188496 -0.186549 -0.186995 -0.189396 -0.193389 -0.198693 -0.20502 -0.2121 -0.219633 -0.227291 -0.234755 -0.24166 -0.247622 -0.252235 -0.255073 -0.25555 -0.25293 -0.246068 -0.232745 -0.208815 -0.165038 -0.0759067 0.132914 0.556662 1.07362 -12.6685 -7.8163 -2.9897 -1.67498 -1.04591 -0.701716 -0.500136 -0.376711 -0.298536 -0.248002 -0.214873 -0.193173 -0.179291 -0.170856 -0.166418 -0.165032 -0.166027 -0.168946 -0.173447 -0.179253 -0.18611 -0.193758 -0.201957 -0.210398 -0.218748 -0.226679 -0.23382 -0.239742 -0.243988 -0.246053 -0.245235 -0.24061 -0.230686 -0.212729 -0.181675 -0.126477 -0.0187686 0.222154 0.640991 1.10919 -9.09969 -5.81789 -2.29577 -1.26222 -0.776004 -0.515588 -0.36578 -0.275898 -0.220418 -0.185776 -0.164188 -0.151089 -0.143781 -0.140496 -0.140183 -0.14215 -0.145912 -0.151147 -0.157617 -0.165108 -0.1734 -0.182267 -0.191461 -0.200677 -0.209577 -0.217807 -0.224944 -0.230494 -0.233934 -0.234615 -0.231647 -0.223777 -0.208955 -0.183564 -0.140808 -0.066757 0.0698523 0.341576 0.741044 1.14569 -7.42046 -4.41202 -0.762326 -0.515283 -0.359669 -0.257378 -0.193319 -0.153975 -0.130151 -0.116487 -0.10928 -0.106425 -0.106701 -0.109158 -0.113274 -0.118758 -0.125362 -0.132923 -0.141348 -0.150487 -0.160176 -0.170203 -0.180332 -0.190264 -0.199634 -0.208063 -0.215058 -0.220044 -0.222444 -0.221463 -0.216038 -0.204685 -0.184998 -0.152998 -0.1016 -0.0174648 0.130241 0.444498 0.847358 1.16622
        </DataArray>
      </PointData>
      <Points>
        <DataArray type="Float32" Name="network2" NumberOfComponents="3" format="ascii">
100.0 300.0 0.0
99.8365 300.0 0.0101
99.347 300.0 0.04
98.5348 300.0 0.0886
97.4052 300.0 0.1543
95.9658 300.0 0.2348
94.2261 300.0 0.3274
92.1975 300.0 0.4291
89.8934 300.0 0.5366
87.329 300.0 0.6467
84.5211 300.0 0.7561
81.4881 300.0 0.8614
78.2499 300.0 0.9595
74.8278 300.0 1.0472
71.2441 300.0 1.1215
67.5222 300.0 1.1791
63.6867 300.0 1.2169
59.7625 300.0 1.2314
55.7755 300.0 1.2193
51.7517 300.0 1.1768
47.7177 300.0 1.1002
43.6999 300.0 0.9857
39.7248 300.0 0.8298
35.8184 300.0 0.629
32.0066 300.0 0.3806
28.3142 300.0 0.0823
24.7656 300.0 -0.2672
21.3839 300.0 -0.6681
18.1912 300.0 -1.1196
15.2083 300.0 -1.6196
12.4546 300.0 -2.165
9.9479 300.0 -2.7515
7.7042 300.0 -3.3739
5.738 300.0 -4.0265
4.062 300.0 -4.7031
2.6867 300.0 -5.3976
1.6211 300.0 -6.1043
0.872 300.0 -6.818
0.4443 300.0 -7.5343
0.3409 300.0 -8.2503
100.0 300.0 0.0
99.8366 300.007 0.0091
99.3473 300.026 0.0362
98.5355 300.059 0.0802
97.4065 300.104 0.1395
95.9677 300.16 0.2119
94.2288 300.226 0.295
92.2011 300.302 0.3858
89.898 300.386 0.4814
87.3346 300.476 0.5785
84.5279 300.572 0.6741
81.4961 300.672 0.7651
78.2591 300.775 0.8485
74.8382 300.879 0.9213
71.2557 300.983 0.9806
67.5351 301.086 1.0235
63.7007 301.186 1.047
59.7777 301.281 1.0479
55.7917 301.37 1.0229
51.7689 301.452 0.9688
47.7358 301.524 0.8818
43.7187 301.585 0.7586
39.7441 301.634 0.5957
35.8382 301.668 0.39
32.0266 301.687 0.1388
28.3342 301.689 -0.1598
24.7854 301.674 -0.507
21.4033 301.64 -0.9031
18.21 301.587 -1.347
15.2263 301.516 -1.8369
12.4716 301.427 -2.3695
9.9635 301.321 -2.9407
7.7184 301.198 -3.5455
5.7506 301.06 -4.1784
4.0728 300.909 -4.8334
2.6956 300.746 -5.5046
1.6279 300.573 -6.1864
0.8767 300.39 -6.8738
0.4467 300.199 -7.5628
0.3409 300.0 -8.2503
100.0 300.0 0.0
99.8368 300.013 0.0064
99.3482 300.051 0.0252
98.5375 300.113 0.0555
97.4101 300.199 0.0961
95.9733 300.307 0.1451
94.2366 300.434 0.2004
92.2115 300.579 0.2596
89.9113 300.74 0.3201
87.3511 300.914 0.3794
84.5477 301.098 0.4348
81.5193 301.29 0.484
78.2859 301.487 0.5243
74.8687 301.687 0.5536
71.2898 301.887 0.5693
67.5727 302.084 0.5693
63.7418 302.275 0.551
59.8221 302.458 0.5121
55.8392 302.63 0.4498
51.8192 302.786 0.3615
47.7885 302.925 0.2443
43.7736 303.042 0.0955
39.8007 303.136 -0.0878
35.896 303.202 -0.3079
32.085 303.238 -0.5669
28.3927 303.242 -0.8664
24.8434 303.212 -1.2071
21.4601 303.147 -1.5889
18.265 303.046 -2.0109
15.2788 302.909 -2.471
12.521 302.738 -2.9663
10.0093 302.534 -3.493
7.7599 302.299 -4.0466
5.7873 302.035 -4.622
4.1043 301.745 -5.2138
2.7214 301.432 -5.8168
1.6478 301.099 -6.426
0.8902 300.748 -7.0369
0.4536 300.381 -7.6458
0.3409 300.0 -8.2503
100.0 300.0 0.0
99.8371 300.018 0.002
99.3497 300.071 0.0077
98.5407 300.158 0.0167
97.4157 300.278 0.0278
95.982 300.428 0.0398
94.249 300.607 0.0513
92.228 300.81 0.0606
89.9324 301.034 0.0659
87.3771 301.277 0.0655
84.5789 301.535 0.0576
81.556 301.803 0.0408
78.3283 302.079 0.0134
74.9166 302.358 -0.0261
71.3435 302.638 -0.079
67.632 302.913 -0.1467
63.8065 303.181 -0.2308
59.892 303.436 -0.3325
55.914 303.676 -0.4537
51.8985 303.895 -0.5958
47.8717 304.089 -0.7606
43.8601 304.253 -0.9498
39.8899 304.383 -1.1651
35.9871 304.476 -1.4079
32.1771 304.526 -1.6794
28.4849 304.532 -1.9802
24.9347 304.49 -2.3106
21.5496 304.399 -2.67
18.3516 304.258 -3.0574
15.3616 304.067 -3.4706
12.5989 303.828 -3.9072
10.0813 303.543 -4.3638
7.8253 303.214 -4.8365
5.8452 302.845 -5.3212
4.1539 302.44 -5.8134
2.7622 302.002 -6.3089
1.679 301.536 -6.8036
0.9114 301.046 -7.2939
0.4644 300.533 -7.7768
0.3409 300.0 -8.2503
100.0 300.0 0.0
99.8376 300.021 -0.0036
99.3515 300.085 -0.0146
98.5449 300.19 -0.0333
97.423 300.335 -0.06
95.9932 300.516 -0.0954
94.2648 300.73 -0.1402
92.2492 300.974 -0.1951
89.9594 301.245 -0.2607
87.4105 301.537 -0.3378
84.619 301.847 -0.4269
81.6032 302.17 -0.5285
78.3826 302.502 -0.643
74.9783 302.838 -0.7707
71.4124 303.175 -0.9118
67.7082 303.506 -1.0665
63.8897 303.828 -1.2351
59.9818 304.136 -1.4176
56.0101 304.424 -1.6143
52.0003 304.688 -1.8255
47.9786 304.921 -2.0516
43.9713 305.119 -2.2927
40.0045 305.276 -2.5491
36.104 305.387 -2.8211
32.2954 305.448 -3.1085
28.6034 305.454 -3.4111
25.0521 305.404 -3.7282
21.6646 305.294 -4.0589
18.4629 305.125 -4.4017
15.4679 304.895 -4.7548
12.6989 304.607 -5.1159
10.1739 304.264 -5.4823
7.9093 303.868 -5.8512
5.9196 303.424 -6.2194
4.2177 302.936 -6.5837
2.8145 302.41 -6.9411
1.7192 301.849 -7.2887
0.9388 301.259 -7.624
0.4783 300.641 -7.945
0.3409 300.0 -8.2503
100.0 300.0 0.0
99.8381 300.023 -0.01
99.3536 300.093 -0.0401
98.5496 300.207 -0.0902
97.4313 300.364 -0.1601
96.006 300.561 -0.2497
94.2829 300.795 -0.3587
92.2733 301.06 -0.4867
89.9903 301.355 -0.6332
87.4486 301.673 -0.7977
84.6648 302.01 -0.9796
81.6569 302.361 -1.1778
78.4446 302.723 -1.3917
75.0486 303.089 -1.62
71.491 303.455 -1.8617
67.795 303.815 -2.1156
63.9845 304.166 -2.3805
60.0843 304.501 -2.6551
56.1196 304.814 -2.9381
52.1164 305.101 -3.2281
48.1005 305.355 -3.524
44.0981 305.57 -3.8242
40.1352 305.741 -4.1277
36.2375 305.862 -4.4329
32.4303 305.928 -4.7385
28.7385 305.935 -5.0431
25.1859 305.88 -5.3451
21.7957 305.761 -5.643
18.5898 305.576 -5.935
15.5891 305.327 -6.2195
12.813 305.014 -6.4945
10.2796 304.64 -6.7581
8.0051 304.209 -7.0086
6.0044 303.726 -7.2439
4.2904 303.195 -7.4623
2.8742 302.622 -7.6622
1.765 302.012 -7.8421
0.9699 301.37 -8.0006
0.4942 300.698 -8.1369
0.3409 300.0 -8.2503
100.0 300.0 0.0
99.8387 300.023 -0.0167
99.3558 300.093 -0.0667
98.5545 300.207 -0.1495
97.4399 300.364 -0.2645
96.0193 300.561 -0.4105
94.3018 300.795 -0.5863
92.2985 301.06 -0.7906
90.0224 301.355 -1.0214
87.4883 301.673 -1.2771
84.7124 302.01 -1.5555
81.7129 302.361 -1.8546
78.5092 302.723 -2.1719
75.1219 303.089 -2.5051
71.573 303.455 -2.8517
67.8855 303.815 -3.209
64.0833 304.166 -3.5744
60.191 304.501 -3.9449
56.2339 304.814 -4.3177
52.2374 305.101 -4.6899
48.2275 305.355 -5.0585
44.2302 305.57 -5.4205
40.2714 305.741 -5.7729
36.3765 305.862 -6.1127
32.571 305.928 -6.4373
28.8793 305.935 -6.744
25.3254 305.88 -7.0303
21.9324 305.761 -7.294
18.7221 305.576 -7.5331
15.7155 305.327 -7.746
12.932 305.014 -7.9312
10.3896 304.64 -8.0878
8.1049 304.209 -8.2148
6.0928 303.726 -8.3116
4.3662 303.195 -8.378
2.9364 302.622 -8.4137
1.8127 302.012 -8.4187
1.0024 301.37 -8.3931
0.5108 300.698 -8.3369
0.3409 300.0 -8.2503
100.0 300.0 0.0
99.8392 300.021 -0.0231
99.3579 300.085 -0.0922
98.5592 300.19 -0.2065
97.4482 300.335 -0.3646
96.032 300.516 -0.5648
94.3198 300.73 -0.8048
92.3226 300.974 -1.0821
90.0532 301.245 -1.3939
87.5263 301.537 -1.7371
84.7582 301.847 -2.1082
81.7667 302.17 -2.5039
78.5711 302.502 -2.9206
75.1922 302.838 -3.3544
71.6516 303.175 -3.8016
67.9724 303.506 -4.2581
64.1781 303.828 -4.7198
60.2935 304.136 -5.1824
56.3434 304.424 -5.6415
52.3535 304.688 -6.0925
48.3494 304.921 -6.5309
44.357 305.119 -6.9521
40.402 305.276 -7.3514
36.51 305.387 -7.7245
32.7059 305.448 -8.0673
29.0144 305.454 -8.376
25.4593 305.404 -8.6472
22.0635 305.294 -8.878
18.8491 305.125 -9.0664
15.8368 304.895 -9.2106
13.0461 304.607 -9.3098
10.4952 304.264 -9.3635
8.2008 303.868 -9.3721
6.1776 303.424 -9.3361
4.4389 302.936 -9.2566
2.9961 302.41 -9.1348
1.8585 301.849 -8.9721
1.0336 301.259 -8.7697
0.5267 300.641 -8.5288
0.3409 300.0 -8.2503
100.0 300.0 0.0
99.8397 300.018 -0.0287
99.3598 300.071 -0.1146
98.5633 300.158 -0.2564
97.4555 300.278 -0.4524
96.0432 300.428 -0.7
94.3357 300.607 -0.9963
92.3438 300.81 -1.3378
90.0803 301.034 -1.7205
87.5597 301.277 -2.1403
84.7983 301.535 -2.5928
81.8138 301.803 -3.0732
78.6255 302.079 -3.577
75.2538 302.358 -4.0991
71.7206 302.638 -4.6345
68.0485 302.913 -5.1779
64.2613 303.181 -5.7241
60.3833 303.436 -6.2675
56.4395 303.676 -6.8021
52.4553 303.895 -7.3223
48.4563 304.089 -7.8219
44.4682 304.253 -8.2949
40.5166 304.383 -8.7354
36.627 304.476 -9.1377
32.8242 304.526 -9.4965
29.1329 304.532 -9.8069
25.5767 304.49 -10.0648
22.1785 304.399 -10.2669
18.9604 304.258 -10.4107
15.9431 304.067 -10.4948
13.1462 303.828 -10.5185
10.5878 303.543 -10.4821
8.2848 303.214 -10.3868
6.252 302.845 -10.2343
4.5027 302.44 -10.0269
3.0485 302.002 -9.767
1.8987 301.536 -9.4572
1.0609 301.046 -9.0998
0.5406 300.533 -8.697
0.3409 300.0 -8.2503
100.0 300.0 0.0
99.84 300.013 -0.0331
99.3612 300.051 -0.132
98.5666 300.113 -0.2953
97.4611 300.199 -0.5207
96.052 300.307 -0.8053
94.348 300.434 -1.1454
92.3603 300.579 -1.5368
90.1013 300.74 -1.9748
87.5857 300.914 -2.4542
84.8295 301.098 -2.9699
81.8505 301.29 -3.5164
78.6678 301.487 -4.0879
75.3018 301.687 -4.6787
71.7742 301.887 -5.2828
68.1078 302.084 -5.894
64.326 302.275 -6.5059
60.4532 302.458 -7.1121
56.5143 302.63 -7.7056
52.5346 302.786 -8.2796
48.5395 302.925 -8.8268
44.5547 303.042 -9.3402
40.6058 303.136 -9.8128
36.718 303.202 -10.2378
32.9163 303.238 -10.6089
29.2251 303.242 -10.9207
25.668 303.212 -11.1683
22.268 303.147 -11.3481
19.047 303.046 -11.4572
16.0258 302.909 -11.4944
13.2241 302.738 -11.4593
10.6599 302.534 -11.3528
8.3502 302.299 -11.1767
6.3098 302.035 -10.9336
4.5524 301.745 -10.6266
3.0892 301.432 -10.2592
1.93 301.099 -9.8348
1.0822 300.748 -9.3568
0.5514 300.381 -8.8279
0.3409 300.0 -8.2503
100.0 300.0 0.0
99.8403 300.007 -0.0359
99.3621 300.026 -0.143
98.5686 300.059 -0.3199
97.4647 300.104 -0.5641
96.0575 300.16 -0.8721
94.3559 300.226 -1.24
92.3707 300.302 -1.6631
90.1147 300.386 -2.136
87.6022 300.476 -2.6534
84.8493 300.572 -3.2092
81.8738 300.672 -3.7975
78.6946 300.775 -4.412
75.3322 300.879 -5.0464
71.8083 300.983 -5.694
68.1454 301.086 -6.3482
64.3671 301.186 -7.0019
60.4976 301.281 -7.6479
56.5618 301.37 -8.2788
52.5848 301.452 -8.8868
48.5923 301.524 -9.4643
44.6096 301.585 -10.0033
40.6624 301.634 -10.4962
36.7758 301.668 -10.9356
32.9747 301.687 -11.3147
29.2836 301.689 -11.6273
25.726 301.674 -11.8684
22.3248 301.64 -12.0339
19.102 301.587 -12.1211
16.0783 301.516 -12.1286
13.2735 301.427 -12.0562
10.7057 301.321 -11.9052
8.3916 301.198 -11.6778
6.3466 301.06 -11.3771
4.5838 300.909 -11.0069
3.115 300.746 -10.5713
1.9498 300.573 -10.0744
1.0957 300.39 -9.5199
0.5583 300.199 -8.911
0.3409 300.0 -8.2503
100.0 300.0 0.0
99.8404 300.0 -0.0368
99.3624 300.0 -0.1468
98.5693 300.0 -0.3284
97.4659 300.0 -0.5789
96.0594 300.0 -0.895
94.3585 300.0 -1.2724
92.3743 300.0 -1.7063
90.1192 300.0 -2.1913
87.6078 300.0 -2.7216
84.8561 300.0 -3.2912
81.8818 300.0 -3.8938
78.7038 300.0 -4.5231
75.3427 300.0 -5.1724
71.82 300.0 -5.8349
68.1583 300.0 -6.5038
64.3811 300.0 -7.1718
60.5128 300.0 -7.8314
56.578 300.0 -8.4751
52.6021 300.0 -9.0949
48.6104 300.0 -9.6827
44.6284 300.0 -10.2305
40.6818 300.0 -10.7303
36.7956 300.0 -11.1747
32.9948 300.0 -11.5564
29.3036 300.0 -11.8694
25.7458 300.0 -12.1082
22.3442 300.0 -12.2688
19.1208 300.0 -12.3485
16.0963 300.0 -12.3458
13.2904 300.0 -12.2607
10.7213 300.0 -12.0944
8.4058 300.0 -11.8494
6.3591 300.0 -11.5291
4.5946 300.0 -11.1373
3.1239 300.0 -10.6783
1.9566 300.0 -10.1565
1.1003 300.0 -9.5757
0.5607 300.0 -8.9395
0.3409 300.0 -8.2503
        </DataArray>
      </Points>
      <Cells>
        <DataArray type="Int32" Name="connectivity" format="ascii">
0 40 41 1
1 41 42 2
2 42 43 3
3 43 44 4
4 44 45 5
5 45 46 6
6 46 47 7
7 47 48 8
8 48 49 9
9 49 50 10
10 50 51 11
11 51 52 12
12 52 53 13
13 53 54 14
14 54 55 15
15 55 56 16
16 56 57 17
17 57 58 18
18 58 59 19
19 59 60 20
20 60 61 21
21 61 62 22
22 62 63 23
23 63 64 24
24 64 65 25
25 65 66 26
26 66 67 27
27 67 68 28
28 68 69 29
29 69 70 30
30 70 71 31
31 71 72 32
32 72 73 33
33 73 74 34
34 74 75 35
35 75 76 36
36 76 77 37
37 77 78 38
38 78 79 39
40 80 81 41
41 81 82 42
42 82 83 43
43 83 84 44
44 84 85 45
45 85 86 46
46 86 87 47
47 87 88 48
48 88 89 49
49 89 90 50
50 90 91 51
51 91 92 52
52 92 93 53
53 93 94 54
54 94 95 55
55 95 96 56
56 96 97 57
57 97 98 58
58 98 99 59
59 99 100 60
60 100 101 61
61 101 102 62
62 102 103 63
63 103 104 64
64 104 105 65
65 105 106 66
66 106 107 67
67 107 108 68
68 108 109 69
69 109 110 70
70 110 111 71
71 111 112 72
72 112 113 73
73 113 114 74
74 114 115 75
75 115 116 76
76 116 117 77
77 117 118 78
78 118 119 79
80 120 121 81
81 121 122 82
82 122 123 83
83 123 124 84
84 124 125 85
85 125 126 86
86 126 127 87
87 127 128 88
88 128 129 89
89 129 130 90
90 130 131 91
91 131 132 92
92 132 133 93
93 133 134 94
94 134 135 95
95 135 136 96
96 136 137 97
97 137 138 98
98 138 139 99
99 139 140 100
100 140 141 101
101 141 142 102
102 142 143 103
103 143 144 104
104 144 145 105
105 145 146 106
106 146 147 107
107 147 148 108
108 148 149 109
109 149 150 110
110 150 151 111
111 151 152 112
112 152 153 113
113 153 154 114
114 154 155 115
115 155 156 116
116 156 157 117
117 157 158 118
118 158 159 119
120 160 161 121
121 161 162 122
122 162 163 123
123 163 164 124
124 164 165 125
125 165 166 126
126 166 167 127
127 167 168 128
128 168 169 129
129 169 170 130
130 170 171 131
131 171 172 132
132 172 173 133
133 173 174 134
134 174 175 135
135 175 176 136
136 176 177 137
137 177 178 138
138 178 179 139
139 179 180 140
140 180 181 141
141 181 182 142
142 182 183 143
143 183 184 144
144 184 185 145
145 185 186 146
146 186 187 147
147 187 188 148
148 188 189 149
149 189 190 150
150 190 191 151
151 191 192 152
152 192 193 153
153 193 194 154
154 194 195 155
155 195 196 156
156 196 197 157
157 197 198 158
158 198 199 159
160 200 201 161
161 201 202 162
162 202 203 163
163 203 204 164
164 204 205 165
165 205 206 166
166 206 207 167
167 207 208 168
168 208 209 169
169 209 210 170
170 210 211 171
171 211 212 172
172 212 213 173
173 213 214 174
174 214 215 175
175 215 216 176
176 216 217 177
177 217 218 178
178 218 219 179
179 219 220 180
180 220 221 181
181 221 222 182
182 222 223 183
183 223 224 184
184 224 225 185
185 225 226 186
186 226 227 187
187 227 228 188
188 228 229 189
189 229 230 190
190 230 231 191
191 231 232 192
192 232 233 193
193 233 234 194
194 234 235 195
195 235 236 196
196 236 237 197
197 237 238 198
198 238 239 199
200 240 241 201
201 241 242 202
202 242 243 203
203 243 244 204
204 244 245 205
205 245 246 206
206 246 247 207
207 247 248 208
208 248 249 209
209 249 250 210
210 250 251 211
211 251 252 212
212 252 253 213
213 253 254 214
214 254 255 215
215 255 256 216
216 256 257 217
217 257 258 218
218 258 259 219
219 259 260 220
220 260 261 221
221 261 262 222
222 262 263 223
223 263 264 224
224 264 265 225
225 265 266 226
226 266 267 227
227 267 268 228
228 268 269 229
229 269 270 230
230 270 271 231
231 271 272 232
232 272 273 233
233 273 274 234
234 274 275 235
235 275 276 236
236 276 277 237
237 277 278 238
238 278 279 239
240 280 281 241
241 281 282 242
242 282 283 243
243 283 284 244
244 284 285 245
245 285 286 246
246 286 287 247
247 287 288 248
248 288 289 249
249 289 290 250
250 290 291 251
251 291 292 252
252 292 293 253
253 293 294 254
254 294 295 255
255 295 296 256
256 296 297 257
257 297 298 258
258 298 299 259
259 299 300 260
260 300 301 261
261 301 302 262
262 302 303 263
263 303 304 264
264 304 305 265
265 305 306 266
266 306 307 267
267 307 308 268
268 308 309 269
269 309 310 270
270 310 311 271
271 311 312 272
272 312 313 273
273 313 314 274
274 314 315 275
275 315 316 276
276 316 317 277
277 317 318 278
278 318 319 279
280 320 321 281
281 321 322 282
282 322 323 283
283 323 324 284
284 324 325 285
285 325 326 286
286 326 327 287
287 327 328 288
288 328 329 289
289 329 330 290
290 330 331 291
291 331 332 292
292 332 333 293
293 333 334 294
294 334 335 295
295 335 336 296
296 336 337 297
297 337 338 298
298 338 339 299
299 339 340 300
300 340 341 301
301 341 342 302
302 342 343 303
303 343 344 304
304 344 345 305
305 345 346 306
306 346 347 307
307 347 348 308
308 348 349 309
309 349 350 310
310 350 351 311
311 351 352 312
312 352 353 313
313 353 354 314
314 354 355 315
315 355 356 316
316 356 357 317
317 357 358 318
318 358 359 319
320 360 361 321
321 361 362 322
322 362 363 323
323 363 364 324
324 364 365 325
325 365 366 326
326 366 367 327
327 367 368 328
328 368 369 329
329 369 370 330
330 370 371 331
331 371 372 332
332 372 373 333
333 373 374 334
334 374 375 335
335 375 376 336
336 376 377 337
337 377 378 338
338 378 379 339
339 379 380 340
340 380 381 341
341 381 382 342
342 382 383 343
343 383 384 344
344 384 385 345
345 385 386 346
346 386 387 347
347 387 388 348
348 388 389 349
349 389 390 350
350 390 391 351
351 391 392 352
352 392 393 353
353 393 394 354
354 394 395 355
355 395 396 356
356 396 397 357
357 397 398 358
358 398 399 359
360 400 401 361
361 401 402 362
362 402 403 363
363 403 404 364
364 404 405 365
365 405 406 366
366 406 407 367
367 407 408 368
368 408 409 369
369 409 410 370
370 410 411 371
371 411 412 372
372 412 413 373
373 413 414 374
374 414 415 375
375 415 416 376
376 416 417 377
377 417 418 378
378 418 419 379
379 419 420 380
380 420 421 381
381 421 422 382
382 422 423 383
383 423 424 384
384 424 425 385
385 425 426 386
386 426 427 387
387 427 428 388
388 428 429 389
389 429 430 390
390 430 431 391
391 431 432 392
392 432 433 393
393 433 434 394
394 434 435 395
395 435 436 396
396 436 437 397
397 437 438 398
398 438 439 399
400 440 441 401
401 441 442 402
402 442 443 403
403 443 444 404
404 444 445 405
405 445 446 406
406 446 447 407
407 447 448 408
408 448 449 409
409 449 450 410
410 450 451 411
411 451 452 412
412 452 453 413
413 453 454 414
414 454 455 415
415 455 456 416
416 456 457 417
417 457 458 418
418 458 459 419
419 459 460 420
420 460 461 421
421 461 462 422
422 462 463 423
423 463 464 424
424 464 465 425
425 465 466 426
426 466 467 427
427 467 468 428
428 468 469 429
429 469 470 430
430 470 471 431
431 471 472 432
432 472 473 433
433 473 474 434
434 474 475 435
435 475 476 436
436 476 477 437
437 477 478 438
438 478 479 439
        </DataArray>
        <DataArray type="Int32" Name="offsets" format="ascii">
4 8 12 16 20 24 28 32 36 40 44 48 52 56 60 64 68 72 76 80 84 88 92 96 100 104 108 112 116 120 124 128 132 136 140 144 148 152 156 160 164 168 172 176 180 184 188 192 196 200 204 208 212 216 220 224 228 232 236 240 244 248 252 256 260 264 268 272 276 280 284 288 292 296 300 304 308 312 316 320 324 328 332 336 340 344 348 352 356 360 364 368 372 376 380 384 388 392 396 400 404 408 412 416 420 424 428 432 436 440 444 448 452 456 460 464 468 472 476 480 484 488 492 496 500 504 508 512 516 520 524 528 532 536 540 544 548 552 556 560 564 568 572 576 580 584 588 592 596 600 604 608 612 616 620 624 628 632 636 640 644 648 652 656 660 664 668 672 676 680 684 688 692 696 700 704 708 712 716 720 724 728 732 736 740 744 748 752 756 760 764 768 772 776 780 784 788 792 796 800 804 808 812 816 820 824 828 832 836 840 844 848 852 856 860 864 868 872 876 880 884 888 892 896 900 904 908 912 916 920 924 928 932 936 940 944 948 952 956 960 964 968 972 976 980 984 988 992 996 1000 1004 1008 1012 1016 1020 1024 1028 1032 1036 1040 1044 1048 1052 1056 1060 1064 1068 1072 1076 1080 1084 1088 1092 1096 1100 1104 1108 1112 1116 1120 1124 1128 1132 1136 1140 1144 1148 1152 1156 1160 1164 1168 1172 1176 1180 1184 1188 1192 1196 1200 1204 1208 1212 1216 1220 1224 1228 1232 1236 1240 1244 1248 1252 1256 1260 1264 1268 1272 1276 1280 1284 1288 1292 1296 1300 1304 1308 1312 1316 1320 1324 1328 1332 1336 1340 1344 1348 1352 1356 1360 1364 1368 1372 1376 1380 1384 1388 1392 1396 1400 1404 1408 1412 1416 1420 1424 1428 1432 1436 1440 1444 1448 1452 1456 1460 1464 1468 1472 1476 1480 1484 1488 1492 1496 1500 1504 1508 1512 1516 1520 1524 1528 1532 1536 1540 1544 1548 1552 1556 1560 1564 1568 1572 1576 1580 1584 1588 1592 1596 1600 1604 1608 1612 1616 1620 1624 1628 1632 1636 1640 1644 1648 1652 1656 1660 1664 1668 1672 1676 1680 1684 1688 1692 1696 1700 1704 1708 1712 1716
        </DataArray>
        <DataArray type="Int32" Name="types" format="ascii">
9 9 9 9 9 9 9 9 9 9 9 9 9 9 9 9 9 9 9 9 9 9 9 9 9 9 9 9 9 9 9 9 9 9 9 9 9 9 9 9 9 9 9 9 9 9 9 9 9 9 9 9 9 9 9 9 9 9 9 9 9 9 9 9 9 9 9 9 9 9 9 9 9 9 9 9 9 9 9 9 9 9 9 9 9 9 9 9 9 9 9 9 9 9 9 9 9 9 9 9 9 9 9 9 9 9 9 9 9 9 9 9 9 9 9 9 9 9 9 9 9 9 9 9 9 9 9 9 9 9 9 9 9 9 9 9 9 9 9 9 9 9 9 9 9 9 9 9 9 9 9 9 9 9 9 9 9 9 9 9 9 9 9 9 9 9 9 9 9 9 9 9 9 9 9 9 9 9 9 9 9 9 9 9 9 9 9 9 9 9 9 9 9 9 9 9 9 9 9 9 9 9 9 9 9 9 9 9 9 9 9 9 9 9 9 9 9 9 9 9 9 9 9 9 9 9 9 9 9 9 9 9 9 9 9 9 9 9 9 9 9 9 9 9 9 9 9 9 9 9 9 9 9 9 9 9 9 9 9 9 9 9 9 9 9 9 9 9 9 9 9 9 9 9 9 9 9 9 9 9 9 9 9 9 9 9 9 9 9 9 9 9 9 9 9 9 9 9 9 9 9 9 9 9 9 9 9 9 9 9 9 9 9 9 9 9 9 9 9 9 9 9 9 9 9 9 9 9 9 9 9 9 9 9 9 9 9 9 9 9 9 9 9 9 9 9 9 9 9 9 9 9 9 9 9 9 9 9 9 9 9 9 9 9 9 9 9 9 9 9 9 9 9 9 9 9 9 9 9 9 9 9 9 9 9 9 9 9 9 9 9 9 9 9 9 9 9 9 9 9 9 9 9 9 9 9 9 9 9 9 9 9 9 9 9 9 9 9 9 9 9 9 9 9 9 9 9 9 9
        </DataArray>
      </Cells>
    </Piece>
  </UnstructuredGrid>
</VTKFile>
