<?xml version="1.0"?>
<VTKFile type="UnstructuredGrid" version="1.0" byte_order="LittleEndian">
  <UnstructuredGrid>
    <Piece NumberOfPoints="3160" NumberOfCells="3042">
      <PointData Scalars="scalars">
        <DataArray type="Float32" Name="cp1" format="ascii">
0.536318 0.445007 0.324505 0.256927 0.198675 0.1478 0.105141 0.0641211 0.0238253 -0.0132399 -0.0494792 -0.0841495 -0.116389 -0.149705 -0.183856 -0.217878 -0.2527 -0.288641 -0.325927 -0.364737 -0.405205 -0.447352 -0.491203 -0.536878 -0.584137 -0.633468 -0.685262 -0.738583 -0.794525 -0.854962 -0.921575 -0.998071 -1.09083 -1.21086 -1.37477 -1.61064 -1.97933 -2.53971 -2.67815 -1.09417 0.916255 1.4208 1.1236 0.817244 0.578141 0.391001 0.246371 0.135472 0.0514411 -0.0103565 -0.0541824 -0.0847422 -0.104787 -0.115853 -0.120851 -0.121218 -0.117543 -0.11099 -0.102246 -0.091857 -0.0802848 -0.0678191 -0.0546466 -0.0405415 -0.0256704 -0.00981613 0.00679292 0.0237779 0.0439475 0.0662957 0.0895376 0.117517 0.148611 0.181158 0.220331 0.269185 0.330235 0.44257 0.528771 0.539304 0.458563 0.342377 0.262874 0.201336 0.149199 0.103106 0.0609984 0.0217147 -0.0153961 -0.0510112 -0.0856498 -0.119669 -0.1535 -0.187541 -0.222163 -0.25771 -0.294505 -0.332843 -0.372956 -0.415011 -0.459134 -0.505477 -0.554274 -0.605481 -0.659312 -0.716323 -0.776957 -0.84249 -0.914255 -0.994072 -1.08525 -1.19199 -1.32023 -1.47753 -1.66996 -1.87057 -1.85485 -1.0388 0.50876 1.44444 1.28933 0.925646 0.660966 0.463931 0.313895 0.198494 0.109369 0.0408501 -0.0112459 -0.0498486 -0.0774291 -0.0963159 -0.107976 -0.113535 -0.114327 -0.111434 -0.105664 -0.0976646 -0.0879382 -0.0769253 -0.0649181 -0.0520599 -0.0382967 -0.0236784 -0.00814572 0.00855604 0.0264503 0.0460656 0.0678714 0.0919673 0.118993 0.149697 0.18507 0.227001 0.278832 0.348805 0.454377 0.528391 0.540102 0.454187 0.335641 0.25756 0.197449 0.14608 0.0994955 0.0574141 0.0187077 -0.0182568 -0.0535229 -0.0880216 -0.122495 -0.156408 -0.190414 -0.225275 -0.261123 -0.298295 -0.337117 -0.377852 -0.420678 -0.465763 -0.513278 -0.563466 -0.616366 -0.6721 -0.731177 -0.79422 -0.862266 -0.936187 -1.01723 -1.10758 -1.20951 -1.32573 -1.45889 -1.61004 -1.76595 -1.80139 -1.25358 0.120627 1.26768 1.29364 0.914476 0.61678 0.412809 0.269147 0.163998 0.0851006 0.0252002 -0.0204787 -0.0546525 -0.0791587 -0.0960907 -0.106742 -0.111703 -0.112172 -0.109211 -0.103494 -0.0956389 -0.0860877 -0.0752538 -0.0634254 -0.0507225 -0.0371496 -0.0227137 -0.00739198 0.00921902 0.0272741 0.0465525 0.0679873 0.0921124 0.118492 0.148579 0.184069 0.225524 0.275741 0.343373 0.449653 0.52701 0.53927 0.453351 0.335068 0.257326 0.196929 0.14534 0.0989526 0.0568453 0.0178016 -0.019414 -0.0549247 -0.089477 -0.123729 -0.157627 -0.191805 -0.226766 -0.262706 -0.299974 -0.338882 -0.379709 -0.422632 -0.467815 -0.515361 -0.56542 -0.618092 -0.673509 -0.731944 -0.793675 -0.859285 -0.929607 -1.00576 -1.08957 -1.18374 -1.29225 -1.41978 -1.56928 -1.72839 -1.7723 -1.19434 0.279033 1.35278 1.27097 0.88793 0.598199 0.395878 0.251669 0.146652 0.0689837 0.0109277 -0.0324092 -0.0641753 -0.0866575 -0.101685 -0.110567 -0.114353 -0.114058 -0.110465 -0.104272 -0.0960803 -0.0863059 -0.0753048 -0.0633443 -0.0505406 -0.0369336 -0.0224896 -0.00711848 0.0094179 0.027366 0.0467366 0.0681976 0.0922291 0.118757 0.148882 0.183903 0.224914 0.275036 0.342503 0.448343 0.525408 0.539545 0.453288 0.334819 0.257114 0.196515 0.144763 0.0984966 0.0563402 0.0171309 -0.0200769 -0.0556695 -0.0902945 -0.124475 -0.158427 -0.192666 -0.227626 -0.263595 -0.300874 -0.339788 -0.380609 -0.423484 -0.468578 -0.515977 -0.565783 -0.618044 -0.672828 -0.730362 -0.790859 -0.854787 -0.922986 -0.996658 -1.07767 -1.16885 -1.27412 -1.398 -1.543 -1.69503 -1.72903 -1.13723 0.336328 1.36415 1.25719 0.872795 0.58395 0.382651 0.2394 0.13527 0.0584645 0.0013728 -0.0407784 -0.0712952 -0.0926628 -0.106584 -0.114415 -0.11738 -0.116402 -0.112245 -0.105616 -0.0970711 -0.0870448 -0.0758491 -0.063725 -0.0508061 -0.037125 -0.0226456 -0.00721295 0.00935566 0.0272574 0.0466958 0.0681665 0.0920632 0.118628 0.148785 0.183664 0.224591 0.274711 0.341991 0.44758 0.524666 0.539657 0.45318 0.334584 0.256871 0.196197 0.144423 0.098198 0.0559901 0.016718 -0.0204844 -0.0561295 -0.0907808 -0.12491 -0.15886 -0.193105 -0.228042 -0.263971 -0.301196 -0.340056 -0.380783 -0.423494 -0.468373 -0.515511 -0.564945 -0.61668 -0.670784 -0.727458 -0.786875 -0.849488 -0.916156 -0.988103 -1.06719 -1.15621 -1.25892 -1.37958 -1.52029 -1.66597 -1.6913 -1.08952 0.376867 1.37039 1.24622 0.860033 0.57172 0.37137 0.229082 0.125841 0.0498632 -0.00641265 -0.047735 -0.0774076 -0.0979489 -0.111086 -0.118203 -0.120518 -0.118959 -0.114331 -0.107314 -0.0984304 -0.0881299 -0.0767175 -0.0644259 -0.0513838 -0.0375916 -0.0230235 -0.00753425 0.00906377 0.0269823 0.0464708 0.0679467 0.0918057 0.118388 0.148539 0.183374 0.224307 0.274419 0.341553 0.447029 0.52411 0.539523 0.452981 0.334368 0.256694 0.195998 0.144226 0.098015 0.0557892 0.016501 -0.0206857 -0.0563314 -0.0909674 -0.125049 -0.15898 -0.193202 -0.228067 -0.263902 -0.301049 -0.339807 -0.380367 -0.422866 -0.467487 -0.514315 -0.56333 -0.614532 -0.668016 -0.723924 -0.782431 -0.844009 -0.909494 -0.98011 -1.05769 -1.14496 -1.24555 -1.36343 -1.50036 -1.64063 -1.65845 -1.0493 0.408673 1.37479 1.23691 0.848947 0.561098 0.36161 0.220224 0.117801 0.0425558 -0.0130377 -0.0537115 -0.0827516 -0.102675 -0.115235 -0.121815 -0.12361 -0.121577 -0.11655 -0.109186 -0.100003 -0.0894425 -0.0778151 -0.06536 -0.0521814 -0.0382611 -0.0235934 -0.00804275 0.00860661 0.0265722 0.0461075 0.0676074 0.0914637 0.118074 0.148244 0.183053 0.224012 0.274175 0.341298 0.446743 0.52383 0.539594 0.452987 0.334293 0.256613 0.195892 0.144103 0.0979309 0.0557419 0.016449 -0.0207223 -0.0563219 -0.0909127 -0.124955 -0.158842 -0.192998 -0.227771 -0.263507 -0.300542 -0.339148 -0.379522 -0.421796 -0.466142 -0.512638 -0.561233 -0.611953 -0.664886 -0.720118 -0.777873 -0.838627 -0.903147 -0.972669 -1.04899 -1.13477 -1.23352 -1.34897 -1.4825 -1.618 -1.62905 -1.01348 0.436121 1.37857 1.22861 0.838927 0.551537 0.352874 0.212325 0.110674 0.0360954 -0.0188891 -0.0590156 -0.0875492 -0.106975 -0.119075 -0.125222 -0.12659 -0.124179 -0.118813 -0.111134 -0.101687 -0.0909004 -0.0790762 -0.0664559 -0.0531212 -0.0390753 -0.0243125 -0.00868375 0.00803353 0.0260562 0.0456465 0.0671892 0.0910632 0.117727 0.147941 0.182726 0.223695 0.273919 0.341062 0.446467 0.523531 0.539821 0.453087 0.33429 0.25659 0.195868 0.144074 0.0979524 0.05581 0.0165401 -0.0205889 -0.0561366 -0.0906809 -0.124672 -0.158487 -0.192546 -0.227226 -0.26285 -0.299738 -0.338176 -0.378362 -0.420401 -0.464473 -0.510646 -0.558846 -0.609132 -0.661574 -0.716217 -0.773342 -0.833385 -0.89708 -0.965672 -1.04093 -1.1254 -1.22251 -1.3358 -1.46625 -1.59732 -1.60231 -0.98156 0.459823 1.38161 1.22109 0.829813 0.542825 0.344921 0.205151 0.104204 0.0302268 -0.024207 -0.0638543 -0.0919616 -0.11096 -0.122655 -0.128432 -0.129464 -0.126735 -0.121073 -0.113121 -0.103435 -0.0924385 -0.0804378 -0.0676612 -0.05417 -0.0400012 -0.0251413 -0.00941414 0.00738149 0.0254559 0.0451045 0.0667084 0.090622 0.117353 0.147624 0.182394 0.223376 0.273654 0.340807 0.446174 0.523174 0.539724 0.452961 0.334166 0.256573 0.195899 0.144138 0.0980606 0.0559744 0.0167673 -0.0203089 -0.0558188 -0.0903078 -0.124221 -0.15795 -0.191903 -0.226465 -0.26196 -0.298702 -0.336973 -0.376955 -0.41876 -0.462571 -0.508442 -0.556282 -0.606169 -0.658163 -0.712304 -0.768865 -0.82828 -0.891264 -0.959033 -1.03333 -1.11663 -1.21223 -1.32357 -1.45126 -1.57819 -1.57747 -0.952188 0.481266 1.38427 1.21408 0.821304 0.534702 0.337541 0.198518 0.0982064 0.0247864 -0.0291534 -0.0683633 -0.0960801 -0.114713 -0.126046 -0.131493 -0.13224 -0.129237 -0.123313 -0.115129 -0.105219 -0.0940235 -0.0818613 -0.0689396 -0.0553039 -0.0410089 -0.0260485 -0.0102251 0.00666223 0.0248034 0.0445119 0.0661855 0.0901516 0.116937 0.147264 0.182079 0.223127 0.273455 0.340656 0.446054 0.523081 0.539776 0.45297 0.334161 0.256583 0.195981 0.144294 0.0982559 0.0562143 0.0170794 -0.0199282 -0.0553782 -0.0897976 -0.12362 -0.157255 -0.191096 -0.225528 -0.260896 -0.297493 -0.335575 -0.375348 -0.416938 -0.4605 -0.506075 -0.553595 -0.603113 -0.654699 -0.708396 -0.764446 -0.823298 -0.885666 -0.952682 -1.02606 -1.1083 -1.20251 -1.31199 -1.43717 -1.56026 -1.55427 -0.924953 0.500797 1.38657 1.2075 0.813305 0.52706 0.330592 0.192269 0.0925389 0.0196541 -0.0338188 -0.0726237 -0.0999733 -0.118283 -0.129307 -0.134457 -0.134941 -0.131687 -0.125534 -0.117141 -0.107028 -0.0956508 -0.0833319 -0.0702636 -0.0564948 -0.0420807 -0.0270176 -0.0110991 0.00588764 0.0241135 0.0438948 0.0656361 0.0896603 0.1165 0.146877 0.181762 0.222864 0.27322 0.340487 0.445931 0.522957 0.539844 0.453036 0.334233 0.256672 0.196121 0.144503 0.0985167 0.0565248 0.0174472 -0.0194687 -0.0548187 -0.0891543 -0.122888 -0.156425 -0.190149 -0.224454 -0.259689 -0.296125 -0.334019 -0.373592 -0.414978 -0.458289 -0.503571 -0.550803 -0.599993 -0.651199 -0.704493 -0.760071 -0.818401 -0.88021 -0.946521 -1.01904 -1.10028 -1.19323 -1.30094 -1.42361 -1.54314 -1.53223 -0.899336 0.519146 1.38866 1.20116 0.805626 0.519732 0.323937 0.186278 0.0871165 0.0147365 -0.0382974 -0.0767094 -0.103714 -0.12173 -0.132465 -0.13735 -0.1376 -0.134115 -0.127737 -0.119148 -0.108853 -0.0973121 -0.0848436 -0.0716266 -0.0577279 -0.0432063 -0.0280364 -0.0120086 0.00507329 0.0233787 0.0432403 0.0650566 0.0891604 0.116066 0.146492 0.181445 0.222593 0.27299 0.34032 0.445795 0.522775 0.53977 0.453004 0.334291 0.256814 0.196312 0.144745 0.0988221 0.0569091 0.0179068 -0.0189312 -0.0541828 -0.0884073 -0.122041 -0.155472 -0.189078 -0.223258 -0.258351 -0.294623 -0.332336 -0.371707 -0.41289 -0.45596 -0.500957 -0.547919 -0.596811 -0.647659 -0.70057 -0.75572 -0.813558 -0.874814 -0.940466 -1.01221 -1.09252 -1.18421 -1.29021 -1.41049 -1.52657 -1.51087 -0.874583 0.536506 1.39057 1.19496 0.798134 0.512622 0.317496 0.180465 0.0818676 0.00995036 -0.0426684 -0.0806877 -0.107367 -0.125097 -0.135557 -0.140195 -0.140226 -0.136531 -0.129942 -0.121157 -0.110695 -0.0990072 -0.0863922 -0.0730239 -0.0589962 -0.0443723 -0.0290935 -0.0129519 0.00422143 0.0226092 0.0425474 0.0644418 0.0886495 0.115625 0.146099 0.181138 0.222369 0.272842 0.340216 0.445705 0.522728 0.539846 0.453098 0.334408 0.256979 0.19656 0.145041 0.0991827 0.0573579 0.0184523 -0.0183056 -0.0534764 -0.08759 -0.121103 -0.154407 -0.187897 -0.22195 -0.25689 -0.293002 -0.330534 -0.369697 -0.410682 -0.453531 -0.498262 -0.544944 -0.593547 -0.644066 -0.696595 -0.751343 -0.808729 -0.869448 -0.934474 -1.00548 -1.08483 -1.17527 -1.27966 -1.39772 -1.51038 -1.48983 -0.850509 0.553082 1.39227 1.18886 0.790774 0.505642 0.311124 0.174741 0.076713 0.00524822 -0.0469724 -0.0846285 -0.110989 -0.128417 -0.138615 -0.14303 -0.142838 -0.138937 -0.132161 -0.123191 -0.112571 -0.100736 -0.0879631 -0.0744506 -0.0603078 -0.045579 -0.030182 -0.0139294 0.00333262 0.0218167 0.0418459 0.0638154 0.0881102 0.11516 0.145701 0.180817 0.222127 0.272672 0.340056 0.445552 0.522604 0.540049 0.453329 0.334636 0.257211 0.19683 0.145357 0.099596 0.0578785 0.0190602 -0.0176014 -0.0526765 -0.0866974 -0.12009 -0.153254 -0.186618 -0.220535 -0.255317 -0.291263 -0.328616 -0.367583 -0.408353 -0.450985 -0.495482 -0.541873 -0.590179 -0.6404 -0.692565 -0.746907 -0.80386 -0.864063 -0.928494 -0.998758 -1.07716 -1.16637 -1.26915 -1.385 -1.49429 -1.46904 -0.826662 0.569405 1.39386 1.18277 0.783434 0.498667 0.304778 0.169031 0.0715684 0.000574857 -0.0512495 -0.0885641 -0.114604 -0.131737 -0.141684 -0.14587 -0.145458 -0.141357 -0.1344 -0.125262 -0.114485 -0.102489 -0.089561 -0.0759229 -0.0616659 -0.0468126 -0.0312958 -0.0149461 0.00240306 0.0209959 0.0411354 0.0631771 0.0875345 0.114678 0.14531 0.18049 0.22185 0.272441 0.33986 0.445333 0.522357 0.540123 0.453428 0.334807 0.257452 0.1971 0.145701 0.100061 0.0584492 0.0197168 -0.0168412 -0.0518057 -0.0857293 -0.118996 -0.152014 -0.185238 -0.219008 -0.253636 -0.289416 -0.326589 -0.365366 -0.40591 -0.448315 -0.492583 -0.5387 -0.586713 -0.636627 -0.688442 -0.742403 -0.798917 -0.85859 -0.922437 -0.991984 -1.06944 -1.15743 -1.25857 -1.3721 -1.47808 -1.44828 -0.802898 0.585706 1.39532 1.17653 0.776003 0.49163 0.298391 0.16326 0.0663587 -0.00413681 -0.0555507 -0.0925212 -0.118237 -0.135092 -0.144798 -0.148741 -0.148112 -0.143818 -0.13667 -0.127367 -0.116435 -0.104275 -0.091207 -0.0774477 -0.063055 -0.0480673 -0.0324456 -0.0160073 0.00143864 0.0201462 0.0404 0.0625227 0.0869456 0.114192 0.144928 0.180178 0.221584 0.272236 0.339756 0.445267 0.522274 0.540036 0.453365 0.334849 0.257645 0.197395 0.146103 0.100568 0.0590365 0.0204115 -0.0160259 -0.050874 -0.0846767 -0.117812 -0.150686 -0.183766 -0.217383 -0.251844 -0.287452 -0.324443 -0.363024 -0.403356 -0.445526 -0.489544 -0.53541 -0.583144 -0.632719 -0.68419 -0.737786 -0.793851 -0.852989 -0.916227 -0.985055 -1.0616 -1.14838 -1.24783 -1.35896 -1.46158 -1.4272 -0.778882 0.602051 1.39664 1.17015 0.768378 0.484441 0.291898 0.157384 0.0610433 -0.00893366 -0.0599264 -0.096548 -0.121932 -0.138508 -0.147965 -0.151667 -0.150823 -0.146331 -0.138992 -0.129516 -0.118427 -0.106112 -0.0929027 -0.079011 -0.0644807 -0.0493701 -0.0336467 -0.0171001 0.000454002 0.0192605 0.0396284 0.0618643 0.0863663 0.113688 0.144514 0.179855 0.221364 0.272116 0.339745 0.445365 0.522387 0.540259 0.453536 0.335062 0.257924 0.197737 0.146545 0.10112 0.0596787 0.0211615 -0.0151569 -0.0498722 -0.083533 -0.116535 -0.149279 -0.182208 -0.215657 -0.249941 -0.285363 -0.32217 -0.360553 -0.400669 -0.442609 -0.486373 -0.531978 -0.579422 -0.628663 -0.679796 -0.733007 -0.788613 -0.847232 -0.909845 -0.977914 -1.05351 -1.13906 -1.23682 -1.34553 -1.44473 -1.40561 -0.754225 0.618564 1.39786 1.16353 0.760545 0.477048 0.285193 0.151344 0.0555872 -0.0138603 -0.064423 -0.100676 -0.125729 -0.142012 -0.151205 -0.154666 -0.153598 -0.148913 -0.14139 -0.131729 -0.120473 -0.108 -0.0946427 -0.080626 -0.0659668 -0.0507249 -0.0348878 -0.0182235 -0.000556457 0.0183414 0.0388175 0.0611766 0.0857679 0.113156 0.144074 0.179518 0.221132 0.271966 0.339601 0.44517 0.522159 0.540448 0.45372 0.335273 0.258223 0.198111 0.147009 0.101703 0.0603726 0.021975 -0.0142284 -0.0488122 -0.0823126 -0.115167 -0.147781 -0.18055 -0.21381 -0.247918 -0.283157 -0.319767 -0.357939 -0.397826 -0.439541 -0.483054 -0.528372 -0.575516 -0.624431 -0.675212 -0.728027 -0.783179 -0.841273 -0.903241 -0.970507 -1.0451 -1.12937 -1.2254 -1.33172 -1.42735 -1.38326 -0.728749 0.635535 1.399 1.15659 0.752355 0.469336 0.27822 0.145073 0.0499467 -0.0189641 -0.0690734 -0.104935 -0.129655 -0.145628 -0.154548 -0.157767 -0.156461 -0.151571 -0.143867 -0.134017 -0.122586 -0.109953 -0.0964408 -0.0822973 -0.067512 -0.0521263 -0.0361677 -0.0193932 -0.00160548 0.0174003 0.0379734 0.0604375 0.0851335 0.112619 0.143635 0.179181 0.220863 0.271773 0.339464 0.445038 0.522013 0.540312 0.453676 0.335391 0.258501 0.198507 0.147492 0.10229 0.0610977 0.0228448 -0.0132272 -0.0476829 -0.0810231 -0.113712 -0.146171 -0.178775 -0.211853 -0.245776 -0.280823 -0.317216 -0.355167 -0.39482 -0.43629 -0.479549 -0.52458 -0.571411 -0.61999 -0.670407 -0.72282 -0.777501 -0.835028 -0.896322 -0.962782 -1.03638 -1.11931 -1.21349 -1.31725 -1.40914 -1.35993 -0.702462 0.653032 1.40002 1.14925 0.743743 0.461251 0.270919 0.138541 0.0440799 -0.0242975 -0.0739348 -0.10937 -0.13373 -0.149376 -0.158012 -0.160986 -0.159436 -0.154322 -0.146421 -0.136382 -0.12478 -0.111988 -0.0983159 -0.084023 -0.069109 -0.0535904 -0.0374987 -0.0206071 -0.00269563 0.016424 0.0370898 0.0596551 0.0844732 0.112083 0.143204 0.178832 0.220596 0.271599 0.339441 0.445163 0.522251 0.540435 0.453863 0.33565 0.258796 0.198913 0.148018 0.102926 0.0618729 0.023769 -0.0121595 -0.0464677 -0.0796492 -0.11217 -0.144449 -0.176874 -0.209776 -0.2435 -0.278329 -0.314499 -0.35223 -0.391639 -0.432833 -0.475821 -0.52057 -0.567076 -0.615317 -0.665359 -0.717335 -0.771517 -0.828451 -0.889042 -0.954682 -1.02725 -1.10879 -1.20102 -1.30202 -1.39 -1.33562 -0.675098 0.671023 1.4009 1.14146 0.734648 0.452713 0.263254 0.131679 0.0379146 -0.0298913 -0.0790299 -0.114007 -0.137979 -0.153292 -0.16163 -0.164329 -0.16253 -0.157186 -0.149072 -0.138841 -0.127058 -0.114104 -0.100274 -0.085816 -0.0707652 -0.0551253 -0.0388891 -0.0218657 -0.00383766 0.015399 0.0361722 0.0588491 0.0837793 0.111506 0.14274 0.178445 0.220309 0.271405 0.339262 0.445049 0.522184 0.54071 0.454171 0.33595 0.259086 0.199327 0.148589 0.10362 0.0627067 0.0247526 -0.0110256 -0.0451691 -0.0781852 -0.110531 -0.142623 -0.174852 -0.207551 -0.241057 -0.275655 -0.311607 -0.349101 -0.388247 -0.429158 -0.471849 -0.516302 -0.562484 -0.610371 -0.660009 -0.711514 -0.765182 -0.821527 -0.881384 -0.946132 -1.01758 -1.09764 -1.18786 -1.28602 -1.3699 -1.31003 -0.646376 0.689865 1.40167 1.13308 0.724988 0.443687 0.255134 0.124421 0.0314096 -0.0357631 -0.0843588 -0.118879 -0.142451 -0.15741 -0.165424 -0.167816 -0.165751 -0.160172 -0.151836 -0.141407 -0.12943 -0.1163 -0.102313 -0.087687 -0.0724951 -0.0567296 -0.0403423 -0.0231827 -0.00504161 0.0143186 0.0352179 0.0580203 0.0830574 0.110879 0.142229 0.178032 0.220005 0.2712 0.339089 0.444904 0.522057 0.540699 0.454201 0.336057 0.25935 0.199764 0.149175 0.104348 0.0635785 0.0257867 -0.00981357 -0.0437915 -0.0766298 -0.108778 -0.140679 -0.172692 -0.205156 -0.238434 -0.272799 -0.308513 -0.345735 -0.384605 -0.425237 -0.467618 -0.511749 -0.557598 -0.605096 -0.65429 -0.705311 -0.758455 -0.814188 -0.87327 -0.937071 -1.00733 -1.08582 -1.17393 -1.26913 -1.34872 -1.28292 -0.616014 0.70961 1.4023 1.1241 0.714679 0.434092 0.246517 0.116721 0.0245125 -0.0419705 -0.0899796 -0.124026 -0.147164 -0.161723 -0.169388 -0.171474 -0.169136 -0.163295 -0.154718 -0.144082 -0.131909 -0.118587 -0.104427 -0.0896477 -0.0743111 -0.058399 -0.0418625 -0.0245667 -0.00630784 0.0131744 0.0342101 0.0571436 0.0822961 0.110235 0.141708 0.177618 0.219691 0.27101 0.339066 0.445021 0.522241 0.540574 0.45408 0.336117 0.259678 0.200247 0.149787 0.105111 0.0644932 0.0268686 -0.00853166 -0.0423251 -0.0749646 -0.106897 -0.138585 -0.17036 -0.202581 -0.235621 -0.269734 -0.305176 -0.342111 -0.380692 -0.421025 -0.463084 -0.50687 -0.552353 -0.59945 -0.648178 -0.698695 -0.751283 -0.806348 -0.864618 -0.927431 -0.996436 -1.07327 -1.15913 -1.25121 -1.32629 -1.25421 -0.583905 0.730289 1.40268 1.11438 0.703638 0.423851 0.237336 0.10854 0.0171805 -0.048567 -0.0959453 -0.129458 -0.152119 -0.166247 -0.173547 -0.175324 -0.172693 -0.166564 -0.157728 -0.146875 -0.1345 -0.120975 -0.106633 -0.0916976 -0.0762049 -0.0601385 -0.0434662 -0.0260358 -0.00764136 0.0119763 0.0331471 0.0562011 0.0814766 0.109549 0.141148 0.177177 0.219362 0.270803 0.339002 0.445072 0.522275 0.540569 0.45409 0.336285 0.260036 0.20073 0.150417 0.105916 0.0654649 0.0280215 -0.00717541 -0.0407504 -0.0731678 -0.104878 -0.136326 -0.167843 -0.19981 -0.232586 -0.266417 -0.301567 -0.338208 -0.376478 -0.416472 -0.45819 -0.501613 -0.54669 -0.59337 -0.641632 -0.691618 -0.743586 -0.797939 -0.855382 -0.917146 -0.984803 -1.05986 -1.14337 -1.23217 -1.30239 -1.22371 -0.549847 0.751888 1.40279 1.10384 0.691769 0.412862 0.227526 0.099818 0.00938474 -0.0555776 -0.102281 -0.135194 -0.157351 -0.171038 -0.177937 -0.17936 -0.17641 -0.169983 -0.16088 -0.149791 -0.137199 -0.123475 -0.108948 -0.0938396 -0.0781809 -0.0619626 -0.0451541 -0.0275886 -0.00904958 0.0107119 0.0320101 0.0551885 0.0805939 0.108794 0.140526 0.1767 0.219 0.270536 0.338844 0.444968 0.522172 0.540688 0.454278 0.336547 0.260366 0.201208 0.151078 0.10677 0.0665145 0.0292627 -0.0057269 -0.0390599 -0.0712323 -0.102705 -0.133894 -0.165128 -0.196806 -0.229293 -0.26282 -0.297649 -0.333973 -0.371901 -0.411528 -0.452886 -0.495915 -0.540567 -0.586793 -0.634568 -0.683996 -0.735301 -0.78892 -0.845478 -0.906113 -0.972343 -1.04553 -1.12654 -1.21183 -1.27689 -1.19123 -0.513742 0.77472 1.40259 1.09239 0.678986 0.401058 0.21701 0.0904883 0.00106876 -0.0630313 -0.109009 -0.141276 -0.162894 -0.17611 -0.182552 -0.183578 -0.180295 -0.173563 -0.164185 -0.152836 -0.140004 -0.12608 -0.111367 -0.0960787 -0.0802572 -0.0638831 -0.0469261 -0.0292193 -0.0105373 0.00935636 0.0307781 0.05409 0.0796319 0.107971 0.139856 0.176161 0.21854 0.270182 0.338672 0.444897 0.522118 0.540871 0.454533 0.336835 0.260719 0.201736 0.151776 0.10765 0.0676191 0.0305912 -0.00417286 -0.0372537 -0.0691589 -0.100359 -0.131252 -0.162177 -0.193538 -0.225711 -0.2589 -0.293369 -0.32934 -0.366902 -0.40614 -0.447097 -0.489706 -0.533915 -0.579657 -0.626906 -0.675742 -0.726358 -0.779192 -0.834787 -0.894227 -0.958978 -1.0302 -1.1085 -1.19005 -1.24968 -1.15663 -0.475426 0.798587 1.40198 1.07992 0.665159 0.38838 0.205727 0.0804823 -0.00781815 -0.0709706 -0.116155 -0.147746 -0.168769 -0.18144 -0.187399 -0.188016 -0.184363 -0.177298 -0.167629 -0.156009 -0.142923 -0.128787 -0.113889 -0.0984197 -0.0824269 -0.0658999 -0.0488037 -0.0309546 -0.0121201 0.00790574 0.0294526 0.0529006 0.0785854 0.107078 0.139097 0.175523 0.218025 0.269796 0.338407 0.444646 0.521818 0.540843 0.454581 0.337035 0.261061 0.202248 0.152475 0.108553 0.0687749 0.0319989 -0.00251081 -0.0353142 -0.0669345 -0.0978155 -0.128364 -0.158956 -0.189983 -0.22178 -0.254587 -0.288677 -0.324258 -0.361413 -0.400226 -0.440743 -0.482901 -0.526638 -0.571862 -0.618547 -0.66677 -0.716661 -0.768637 -0.823234 -0.881409 -0.944566 -1.01373 -1.08919 -1.1667 -1.22052 -1.11976 -0.434854 0.823641 1.40089 1.06629 0.650215 0.374718 0.193622 0.0697516 -0.017342 -0.0794536 -0.123751 -0.154612 -0.174978 -0.187042 -0.192501 -0.192678 -0.18861 -0.18118 -0.171191 -0.159287 -0.145956 -0.131594 -0.116507 -0.100863 -0.0846929 -0.0680189 -0.0507953 -0.0328058 -0.0138291 0.00633708 0.0280254 0.0516111 0.0774408 0.106081 0.138224 0.174794 0.217485 0.269397 0.338059 0.444296 0.521481 0.540707 0.454506 0.337134 0.261339 0.202701 0.153182 0.109506 0.0699751 0.0334692 -0.000739521 -0.0332279 -0.0645225 -0.0950459 -0.125211 -0.155436 -0.186076 -0.217436 -0.249822 -0.283499 -0.31864 -0.355342 -0.393691 -0.433729 -0.475398 -0.518625 -0.563295 -0.609377 -0.656953 -0.706082 -0.757153 -0.810721 -0.867555 -0.928975 -0.995992 -1.06845 -1.14161 -1.18921 -1.08024 -0.391522 0.850104 1.39926 1.05133 0.633993 0.359972 0.180579 0.0582439 -0.0275486 -0.0885334 -0.131856 -0.161874 -0.181513 -0.192952 -0.197865 -0.197531 -0.193006 -0.185193 -0.174863 -0.162664 -0.149081 -0.134489 -0.119206 -0.103397 -0.0870717 -0.0702556 -0.0528986 -0.0347792 -0.0156818 0.00462673 0.0264634 0.0501832 0.076161 0.104944 0.137225 0.173974 0.216848 0.268907 0.337652 0.443997 0.521228 0.540576 0.454382 0.33714 0.261534 0.203113 0.153854 0.110459 0.0712084 0.0350155 0.00114299 -0.0309919 -0.0618975 -0.0920119 -0.121759 -0.151556 -0.181747 -0.212631 -0.244541 -0.277724 -0.312368 -0.348582 -0.386425 -0.425935 -0.467054 -0.509721 -0.553821 -0.599269 -0.646126 -0.694465 -0.744612 -0.797057 -0.852497 -0.912112 -0.976766 -1.04601 -1.11459 -1.15566 -1.03805 -0.345474 0.877793 1.39686 1.03491 0.616386 0.343972 0.166501 0.0458816 -0.038475 -0.098229 -0.140494 -0.16957 -0.188408 -0.199166 -0.203456 -0.20255 -0.197531 -0.189305 -0.17862 -0.166118 -0.152261 -0.137445 -0.121978 -0.106009 -0.0895547 -0.0726122 -0.0551304 -0.0369045 -0.0176961 0.00274849 0.0247177 0.0485651 0.0747002 0.103646 0.136091 0.173019 0.216053 0.268267 0.337208 0.443697 0.520974 0.540139 0.453946 0.336898 0.261608 0.203461 0.154451 0.111366 0.0724662 0.0366325 0.00313903 -0.0285826 -0.0590469 -0.0886944 -0.117954 -0.147247 -0.176921 -0.207276 -0.238636 -0.271249 -0.305328 -0.340982 -0.378255 -0.417187 -0.457714 -0.499762 -0.543238 -0.588023 -0.63412 -0.681634 -0.730814 -0.782042 -0.836027 -0.893774 -0.955896 -1.02173 -1.08552 -1.11963 -0.992837 -0.296354 0.906918 1.39362 1.01687 0.59717 0.326612 0.151278 0.0325596 -0.050203 -0.108586 -0.149673 -0.177735 -0.195672 -0.205636 -0.209224 -0.207702 -0.202151 -0.193466 -0.182404 -0.169583 -0.155451 -0.140428 -0.124796 -0.108686 -0.0921308 -0.0750934 -0.0575174 -0.0392131 -0.0199125 0.000641722 0.0227288 0.0467115 0.0730018 0.102121 0.134749 0.171864 0.215086 0.267501 0.336705 0.443395 0.520771 0.539584 0.453423 0.336573 0.261565 0.203692 0.154975 0.112225 0.0737025 0.0382834 0.00525295 -0.0259775 -0.0559438 -0.085054 -0.113734 -0.142437 -0.171507 -0.201243 -0.231968 -0.263938 -0.297363 -0.332358 -0.368979 -0.407267 -0.44716 -0.488536 -0.531298 -0.575367 -0.620696 -0.667347 -0.715493 -0.765466 -0.817925 -0.873705 -0.933186 -0.995386 -1.05405 -1.08075 -0.944179 -0.243757 0.937495 1.38934 0.996819 0.576115 0.307749 0.13479 0.0181617 -0.0628266 -0.119685 -0.159429 -0.186346 -0.203264 -0.21232 -0.215114 -0.212916 -0.206784 -0.197592 -0.186121 -0.172973 -0.158587 -0.143378 -0.127606 -0.111401 -0.0947902 -0.0777142 -0.0600953 -0.041744 -0.0223926 -0.00177436 0.0204178 0.0445391 0.0709719 0.100262 0.133075 0.170385 0.213848 0.266485 0.335866 0.44278 0.520265 0.538777 0.45265 0.335985 0.261255 0.203682 0.155312 0.112969 0.0748921 0.0399533 0.00746088 -0.023184 -0.0525422 -0.0810193 -0.109036 -0.137038 -0.165378 -0.194381 -0.224371 -0.255595 -0.288259 -0.322496 -0.358363 -0.395907 -0.435068 -0.475698 -0.517692 -0.560985 -0.605489 -0.65123 -0.698324 -0.747016 -0.797875 -0.851598 -0.908303 -0.96661 -1.01982 -1.03874 -0.891833 -0.187762 0.969312 1.3837 0.97457 0.553004 0.287121 0.116819 0.00253205 -0.0764364 -0.131566 -0.169778 -0.195374 -0.21113 -0.219142 -0.221025 -0.218059 -0.211282 -0.201547 -0.189645 -0.176176 -0.161563 -0.146204 -0.130348 -0.11411 -0.0975126 -0.0804887 -0.0629064 -0.0445652 -0.0252289 -0.00460069 0.0176547 0.0418751 0.0684542 0.0979352 0.130943 0.168462 0.212184 0.265102 0.334735 0.441854 0.519465 0.537452 0.451348 0.334868 0.260449 0.203276 0.15532 0.113472 0.0759531 0.0415981 0.00974447 -0.0202031 -0.0488126 -0.0765195 -0.103749 -0.130913 -0.158387 -0.186521 -0.215633 -0.245971 -0.277749 -0.311102 -0.346077 -0.382741 -0.421033 -0.460806 -0.501969 -0.54442 -0.58802 -0.632794 -0.678833 -0.726224 -0.775422 -0.826985 -0.880778 -0.935041 -0.982479 -0.993019 -0.835097 -0.127394 1.00281 1.37642 0.949588 0.527431 0.264393 0.097077 -0.0145138 -0.0911471 -0.144275 -0.180728 -0.204775 -0.21916 -0.225949 -0.226775 -0.222926 -0.215424 -0.205117 -0.192779 -0.179002 -0.164209 -0.148777 -0.132922 -0.116749 -0.100277 -0.0834165 -0.0659912 -0.047783 -0.0285653 -0.0080148 0.0142209 0.0384937 0.0652183 0.0948861 0.128111 0.165905 0.209939 0.263185 0.333179 0.440656 0.518446 0.535451 0.449314 0.332991 0.25892 0.202212 0.154795 0.113559 0.0767232 0.0431171 0.0120721 -0.0170294 -0.0447178 -0.0714563 -0.0977199 -0.12389 -0.150336 -0.177434 -0.205495 -0.23477 -0.265487 -0.297771 -0.331678 -0.36728 -0.404525 -0.443287 -0.483473 -0.524953 -0.567577 -0.61135 -0.656271 -0.702332 -0.749874 -0.799229 -0.849997 -0.900068 -0.9414 -0.942968 -0.773398 -0.062431 1.03787 1.367 0.921296 0.498793 0.23911 0.0752861 -0.0332024 -0.107121 -0.157888 -0.192249 -0.214396 -0.22712 -0.232468 -0.232055 -0.227186 -0.218876 -0.207971 -0.195216 -0.181175 -0.16629 -0.150899 -0.135167 -0.119217 -0.103043 -0.0865084 -0.0694279 -0.0515529 -0.0326256 -0.0123078 0.00978354 0.0340368 0.0608443 0.0906791 0.124169 0.16231 0.206746 0.260391 0.330808 0.438765 0.516889 0.532185 0.445912 0.329831 0.256202 0.200051 0.153329 0.112887 0.07694 0.0443453 0.0143731 -0.0136269 -0.0401596 -0.0657051 -0.0907722 -0.115739 -0.140955 -0.16682 -0.193624 -0.221609 -0.251028 -0.281999 -0.314592 -0.348871 -0.384812 -0.422314 -0.461263 -0.501543 -0.543049 -0.585728 -0.629452 -0.674173 -0.720118 -0.767332 -0.815057 -0.860754 -0.895626 -0.88762 -0.705566 0.00836117 1.0748 1.35477 0.888705 0.466199 0.210531 0.0508599 -0.0539624 -0.124589 -0.172419 -0.204156 -0.223923 -0.234583 -0.238177 -0.236306 -0.230275 -0.221099 -0.209613 -0.196507 -0.182312 -0.167469 -0.152274 -0.136868 -0.121365 -0.105722 -0.0897724 -0.0733245 -0.0560894 -0.0377452 -0.0179333 0.00377829 0.0278241 0.0545997 0.0845965 0.118414 0.156987 0.201956 0.256199 0.32719 0.435755 0.51432 0.527658 0.440463 0.32458 0.25146 0.196032 0.150296 0.111044 0.0764438 0.0453256 0.0168487 -0.00967177 -0.0347563 -0.0588641 -0.0824741 -0.105995 -0.129768 -0.154173 -0.179471 -0.205899 -0.233734 -0.26308 -0.294007 -0.326592 -0.360827 -0.396635 -0.433922 -0.472613 -0.512648 -0.553941 -0.596326 -0.639712 -0.684129 -0.729312 -0.774136 -0.81547 -0.843618 -0.825439 -0.630006 0.086475 1.11414 1.33858 0.850035 0.428169 0.177492 0.0229086 -0.0772523 -0.143616 -0.187574 -0.215842 -0.232538 -0.240576 -0.24203 -0.238495 -0.231237 -0.221229 -0.209269 -0.195971 -0.181836 -0.167261 -0.152497 -0.137692 -0.122929 -0.10813 -0.0931297 -0.0777296 -0.0616091 -0.0443682 -0.0255831 -0.00476801 0.0186322 0.0451321 0.0752518 0.109552 0.148874 0.194742 0.24994 0.321836 0.431264 0.510633 0.528129 0.433681 0.318134 0.244224 0.189715 0.145845 0.10866 0.076094 0.0468896 0.0201772 -0.00465313 -0.0281055 -0.0506125 -0.0725879 -0.0944535 -0.116547 -0.139213 -0.162701 -0.18724 -0.213082 -0.240333 -0.26908 -0.299386 -0.331238 -0.364611 -0.399458 -0.435756 -0.473508 -0.512702 -0.553301 -0.595217 -0.638317 -0.682007 -0.724566 -0.76198 -0.783348 -0.75412 -0.543605 0.175531 1.15732 1.3172 0.803124 0.382249 0.137526 -0.0106875 -0.104517 -0.164742 -0.202952 -0.226124 -0.238564 -0.243247 -0.242228 -0.236984 -0.228635 -0.218041 -0.205908 -0.192765 -0.179046 -0.165098 -0.151127 -0.13728 -0.123628 -0.110091 -0.0965174 -0.0827166 -0.0684025 -0.0531439 -0.0364199 -0.0176623 0.00391439 0.0291901 0.0590267 0.0943038 0.135967 0.185185 0.24378 0.318231 0.430987 0.515308 0.417228 0.348962 0.262916 0.205261 0.159853 0.121809 0.0890749 0.0604018 0.0348362 0.0116022 -0.00984336 -0.0300155 -0.0493705 -0.0682746 -0.0871082 -0.10619 -0.125817 -0.14621 -0.167571 -0.190075 -0.21382 -0.238882 -0.265273 -0.292953 -0.321895 -0.35204 -0.383359 -0.415885 -0.449678 -0.484859 -0.521494 -0.559635 -0.598835 -0.637199 -0.669675 -0.682202 -0.633301 -0.39451 0.29087 1.14265 1.23252 0.733231 0.323742 0.0875432 -0.0488734 -0.130367 -0.179797 -0.209476 -0.226364 -0.23449 -0.236445 -0.233919 -0.228054 -0.219712 -0.209584 -0.198257 -0.186172 -0.1737 -0.161157 -0.148734 -0.136575 -0.124778 -0.1133