<?xml version="1.0"?>
<VTKFile type="UnstructuredGrid" version="1.0" byte_order="LittleEndian">
  <UnstructuredGrid>
    <Piece NumberOfPoints="70" NumberOfCells="34">
      <PointData Scalars="scalars">
        <DataArray type="Float32" Name="cp1" format="ascii">
0.0 0.0 0.0 0.0 0.0 0.0 0.0 0.0 0.0 0.0 0.0 0.0 0.0 0.0 0.0 0.0 0.0 0.0 0.0 0.0 0.0 0.0 0.0 0.0 0.0 0.0 0.0 0.0 0.0 0.0 0.0 0.0 0.0 0.0 0.0 0.0 0.0 0.0 0.0 0.0 0.0 0.0 0.0 0.0 0.0 0.0 0.0 0.0 0.0 0.0 0.0 0.0 0.0 0.0 0.0 0.0 0.0 0.0 0.0 0.0 0.0 0.0 0.0 0.0 0.0 0.0 0.0 0.0 0.0 0.0
        </DataArray>
        <DataArray type="Float32" Name="cp2" format="ascii">
0.0 0.0 0.0 0.0 0.0 0.0 0.0 0.0 0.0 0.0 0.0 0.0 0.0 0.0 0.0 0.0 0.0 0.0 0.0 0.0 0.0 0.0 0.0 0.0 0.0 0.0 0.0 0.0 0.0 0.0 0.0 0.0 0.0 0.0 0.0 0.0 0.0 0.0 0.0 0.0 0.0 0.0 0.0 0.0 0.0 0.0 0.0 0.0 0.0 0.0 0.0 0.0 0.0 0.0 0.0 0.0 0.0 0.0 0.0 0.0 0.0 0.0 0.0 0.0 0.0 0.0 0.0 0.0 0.0 0.0
        </DataArray>
        <DataArray type="Float32" Name="cp3" format="ascii">
0.0 0.0 0.0 0.0 0.0 0.0 0.0 0.0 0.0 0.0 0.0 0.0 0.0 0.0 0.0 0.0 0.0 0.0 0.0 0.0 0.0 0.0 0.0 0.0 0.0 0.0 0.0 0.0 0.0 0.0 0.0 0.0 0.0 0.0 0.0 0.0 0.0 0.0 0.0 0.0 0.0 0.0 0.0 0.0 0.0 0.0 0.0 0.0 0.0 0.0 0.0 0.0 0.0 0.0 0.0 0.0 0.0 0.0 0.0 0.0 0.0 0.0 0.0 0.0 0.0 0.0 0.0 0.0 0.0 0.0
        </DataArray>
        <DataArray type="Float32" Name="cp4" format="ascii">
0.0 0.0 0.0 0.0 0.0 0.0 0.0 0.0 0.0 0.0 0.0 0.0 0.0 0.0 0.0 0.0 0.0 0.0 0.0 0.0 0.0 0.0 0.0 0.0 0.0 0.0 0.0 0.0 0.0 0.0 0.0 0.0 0.0 0.0 0.0 0.0 0.0 0.0 0.0 0.0 0.0 0.0 0.0 0.0 0.0 0.0 0.0 0.0 0.0 0.0 0.0 0.0 0.0 0.0 0.0 0.0 0.0 0.0 0.0 0.0 0.0 0.0 0.0 0.0 0.0 0.0 0.0 0.0 0.0 0.0
        </DataArray>
      </PointData>
      <Points>
        <DataArray type="Float32" Name="network3" NumberOfComponents="3" format="ascii">
100.0 0.0 0.0
2500.0 0.0 0.0
100.0 8.8235 0.0
2500.0 8.8235 0.0
100.0 17.6471 0.0
2500.0 17.6471 0.0
100.0 26.4706 0.0
2500.0 26.4706 0.0
100.0 35.2941 0.0
2500.0 35.2941 0.0
100.0 44.1176 0.0
2500.0 44.1176 0.0
100.0 52.9412 0.0
2500.0 52.9412 0.0
100.0 61.7647 0.0
2500.0 61.7647 0.0
100.0 70.5882 0.0
2500.0 70.5882 0.0
100.0 79.4118 0.0
2500.0 79.4118 0.0
100.0 88.2353 0.0
2500.0 88.2353 0.0
100.0 97.0588 0.0
2500.0 97.0588 0.0
100.0 105.882 0.0
2500.0 105.882 0.0
100.0 114.706 0.0
2500.0 114.706 0.0
100.0 123.529 0.0
2500.0 123.529 0.0
100.0 132.353 0.0
2500.0 132.353 0.0
100.0 141.176 0.0
2500.0 141.177 0.0
100.0 150.0 0.0
2500.0 150.0 0.0
100.0 158.823 0.0
2500.0 158.823 0.0
100.0 167.647 0.0
2500.0 167.647 0.0
100.0 176.471 0.0
2500.0 176.471 0.0
100.0 185.294 0.0
2500.0 185.294 0.0
100.0 194.118 0.0
2500.0 194.118 0.0
100.0 202.941 0.0
2500.0 202.941 0.0
100.0 211.765 0.0
2500.0 211.765 0.0
100.0 220.588 0.0
2500.0 220.588 0.0
100.0 229.412 0.0
2500.0 229.412 0.0
100.0 238.235 0.0
2500.0 238.235 0.0
100.0 247.059 0.0
2500.0 247.059 0.0
100.0 255.882 0.0
2500.0 255.882 0.0
100.0 264.706 0.0
2500.0 264.706 0.0
100.0 273.529 0.0
2500.0 273.529 0.0
100.0 282.353 0.0
2500.0 282.353 0.0
100.0 291.176 0.0
2500.0 291.176 0.0
100.0 300.0 0.0
2500.0 300.0 0.0
        </DataArray>
      </Points>
      <Cells>
        <DataArray type="Int32" Name="connectivity" format="ascii">
0 2 3 1
2 4 5 3
4 6 7 5
6 8 9 7
8 10 11 9
10 12 13 11
12 14 15 13
14 16 17 15
16 18 19 17
18 20 21 19
20 22 23 21
22 24 25 23
24 26 27 25
26 28 29 27
28 30 31 29
30 32 33 31
32 34 35 33
34 36 37 35
36 38 39 37
38 40 41 39
40 42 43 41
42 44 45 43
44 46 47 45
46 48 49 47
48 50 51 49
50 52 53 51
52 54 55 53
54 56 57 55
56 58 59 57
58 60 61 59
60 62 63 61
62 64 65 63
64 66 67 65
66 68 69 67
        </DataArray>
        <DataArray type="Int32" Name="offsets" format="ascii">
4 8 12 16 20 24 28 32 36 40 44 48 52 56 60 64 68 72 76 80 84 88 92 96 100 104 108 112 116 120 124 128 132 136
        </DataArray>
        <DataArray type="Int32" Name="types" format="ascii">
9 9 9 9 9 9 9 9 9 9 9 9 9 9 9 9 9 9 9 9 9 9 9 9 9 9 9 9 9 9 9 9 9 9
        </DataArray>
      </Cells>
    </Piece>
  </UnstructuredGrid>
</VTKFile>
