<?xml version="1.0"?>
<VTKFile type="UnstructuredGrid" version="1.0" byte_order="LittleEndian">
  <UnstructuredGrid>
    <Piece NumberOfPoints="80" NumberOfCells="39">
      <PointData Scalars="scalars">
        <DataArray type="Float32" Name="cp1" format="ascii">
0.0 0.0 0.0 0.0 0.0 0.0 0.0 0.0 0.0 0.0 0.0 0.0 0.0 0.0 0.0 0.0 0.0 0.0 0.0 0.0 0.0 0.0 0.0 0.0 0.0 0.0 0.0 0.0 0.0 0.0 0.0 0.0 0.0 0.0 0.0 0.0 0.0 0.0 0.0 0.0 0.0 0.0 0.0 0.0 0.0 0.0 0.0 0.0 0.0 0.0 0.0 0.0 0.0 0.0 0.0 0.0 0.0 0.0 0.0 0.0 0.0 0.0 0.0 0.0 0.0 0.0 0.0 0.0 0.0 0.0 0.0 0.0 0.0 0.0 0.0 0.0 0.0 0.0 0.0 0.0
        </DataArray>
      </PointData>
      <Points>
        <DataArray type="Float32" Name="network3" NumberOfComponents="3" format="ascii">
100.0 0.0 0.0
2500.0 0.0 0.0
100.0 7.6923 0.0
2500.0 7.6923 0.0
100.0 15.3846 0.0
2500.0 15.3846 0.0
100.0 23.0769 0.0
2500.0 23.0769 0.0
100.0 30.7692 0.0
2500.0 30.7692 0.0
100.0 38.4615 0.0
2500.0 38.4615 0.0
100.0 46.1538 0.0
2500.0 46.1538 0.0
100.0 53.8462 0.0
2500.0 53.8462 0.0
100.0 61.5385 0.0
2500.0 61.5385 0.0
100.0 69.2308 0.0
2500.0 69.2308 0.0
100.0 76.9231 0.0
2500.0 76.9231 0.0
100.0 84.6154 0.0
2500.0 84.6154 0.0
100.0 92.3077 0.0
2500.0 92.3077 0.0
100.0 100.0 0.0
2500.0 100.0 0.0
100.0 107.692 0.0
2500.0 107.692 0.0
100.0 115.385 0.0
2500.0 115.385 0.0
100.0 123.077 0.0
2500.0 123.077 0.0
100.0 130.769 0.0
2500.0 130.769 0.0
100.0 138.462 0.0
2500.0 138.462 0.0
100.0 146.154 0.0
2500.0 146.154 0.0
100.0 153.846 0.0
2500.0 153.846 0.0
100.0 161.538 0.0
2500.0 161.538 0.0
100.0 169.231 0.0
2500.0 169.231 0.0
100.0 176.923 0.0
2500.0 176.923 0.0
100.0 184.615 0.0
2500.0 184.615 0.0
100.0 192.308 0.0
2500.0 192.308 0.0
100.0 200.0 0.0
2500.0 200.0 0.0
100.0 207.692 0.0
2500.0 207.692 0.0
100.0 215.385 0.0
2500.0 215.385 0.0
100.0 223.077 0.0
2500.0 223.077 0.0
100.0 230.769 0.0
2500.0 230.769 0.0
100.0 238.462 0.0
2500.0 238.462 0.0
100.0 246.154 0.0
2500.0 246.154 0.0
100.0 253.846 0.0
2500.0 253.846 0.0
100.0 261.538 0.0
2500.0 261.538 0.0
100.0 269.231 0.0
2500.0 269.231 0.0
100.0 276.923 0.0
2500.0 276.923 0.0
100.0 284.615 0.0
2500.0 284.615 0.0
100.0 292.308 0.0
2500.0 292.308 0.0
100.0 300.0 0.0
2500.0 300.0 0.0
        </DataArray>
      </Points>
      <Cells>
        <DataArray type="Int32" Name="connectivity" format="ascii">
0 2 3 1
2 4 5 3
4 6 7 5
6 8 9 7
8 10 11 9
10 12 13 11
12 14 15 13
14 16 17 15
16 18 19 17
18 20 21 19
20 22 23 21
22 24 25 23
24 26 27 25
26 28 29 27
28 30 31 29
30 32 33 31
32 34 35 33
34 36 37 35
36 38 39 37
38 40 41 39
40 42 43 41
42 44 45 43
44 46 47 45
46 48 49 47
48 50 51 49
50 52 53 51
52 54 55 53
54 56 57 55
56 58 59 57
58 60 61 59
60 62 63 61
62 64 65 63
64 66 67 65
66 68 69 67
68 70 71 69
70 72 73 71
72 74 75 73
74 76 77 75
76 78 79 77
        </DataArray>
        <DataArray type="Int32" Name="offsets" format="ascii">
4 8 12 16 20 24 28 32 36 40 44 48 52 56 60 64 68 72 76 80 84 88 92 96 100 104 108 112 116 120 124 128 132 136 140 144 148 152 156
        </DataArray>
        <DataArray type="Int32" Name="types" format="ascii">
9 9 9 9 9 9 9 9 9 9 9 9 9 9 9 9 9 9 9 9 9 9 9 9 9 9 9 9 9 9 9 9 9 9 9 9 9 9 9
        </DataArray>
      </Cells>
    </Piece>
  </UnstructuredGrid>
</VTKFile>
