<?xml version="1.0"?>
<VTKFile type="UnstructuredGrid" version="1.0" byte_order="LittleEndian">
  <UnstructuredGrid>
    <Piece NumberOfPoints="205" NumberOfCells="160">
      <PointData Scalars="scalars">
        <DataArray type="Float32" Name="cp1" format="ascii">
-60.2653 -37.9853 -2.98552 -3.18107 -1.66219 -0.938808 -0.699243 -0.581997 -0.435262 -0.355857 -0.322207 -0.286644 -0.24731 -0.241098 -0.233724 -0.214526 -0.198043 -0.185156 -0.176001 -0.174811 -0.17984 -0.185168 -0.187095 -0.18492 -0.178113 -0.181079 -0.191772 -0.197609 -0.205668 -0.21907 -0.223311 -0.24867 -0.293438 -0.345655 -0.428813 -0.583145 -0.861453 -1.20089 0.182431 -18.4054 -34.9847 -28.498 -17.8641 -0.85677 -1.19987 -0.620063 -0.365273 -0.296863 -0.259832 -0.209749 -0.188348 -0.182123 -0.174203 -0.161468 -0.160547 -0.162954 -0.15694 -0.152579 -0.149501 -0.147791 -0.14993 -0.155396 -0.160903 -0.165088 -0.167256 -0.167371 -0.170971 -0.178342 -0.184471 -0.192015 -0.203016 -0.212544 -0.231816 -0.265429 -0.306643 -0.363805 -0.453304 -0.602677 -0.879025 -1.27663 -9.84628 -19.7708 0.74322 -1.92984 0.849947 0.0629217 -0.0368184 -0.0573804 -0.0656673 -0.0731802 -0.0819795 -0.0886629 -0.0984681 -0.101984 -0.107409 -0.114001 -0.117138 -0.119381 -0.122508 -0.12648 -0.128023 -0.133101 -0.14003 -0.144488 -0.150845 -0.156482 -0.15955 -0.163148 -0.168078 -0.174014 -0.181002 -0.192756 -0.202876 -0.216788 -0.240573 -0.275552 -0.311032 -0.351567 -0.440353 -0.460906 -0.338477 -2.01264 -4.51913 -5.5057 -1.94574 -1.09344 -0.482714 -0.196133 -0.0975722 -0.0578283 -0.0431625 -0.0521484 -0.0687877 -0.0793943 -0.0866669 -0.0967356 -0.103294 -0.106253 -0.108461 -0.114634 -0.12294 -0.126818 -0.13522 -0.145051 -0.148187 -0.156009 -0.167547 -0.17543 -0.180812 -0.184438 -0.189849 -0.201877 -0.218242 -0.232558 -0.241066 -0.272087 -0.320667 -0.369915 -0.406953 -0.519741 -0.818198 -1.43381 -4.8858 -9.29962 -9.22866 -6.44425 -2.68547 -1.03527 -0.259109 -0.0646006 -0.0107002 0.00737946 -0.0100159 -0.0442443 -0.0562469 -0.0674485 -0.0855616 -0.0942028 -0.0960073 -0.0976955 -0.107665 -0.123707 -0.126932 -0.141381 -0.15992 -0.156857 -0.169369 -0.191482 -0.205949 -0.215053 -0.216759 -0.224084 -0.237777 -0.271244 -0.288638 -0.281251 -0.322485 -0.417944 -0.466048 -0.461026 -0.603435 -1.22011 -1.11408 -8.70605 -14.1179
        </DataArray>
        <DataArray type="Float32" Name="cp2" format="ascii">
-115.683 -74.0071 -6.89919 -6.8979 -3.70128 -2.21786 -1.66429 -1.34394 -1.006 -0.830577 -0.738604 -0.643723 -0.557956 -0.529949 -0.493666 -0.44582 -0.403568 -0.375332 -0.356931 -0.347289 -0.343217 -0.333497 -0.321879 -0.309359 -0.29075 -0.286981 -0.291576 -0.288316 -0.287633 -0.285354 -0.28082 -0.300445 -0.328262 -0.364591 -0.420285 -0.529502 -0.732317 -0.978349 0.534118 -17.0478 -32.997 -54.8345 -34.9405 -2.19183 -2.74654 -1.49368 -0.941104 -0.758696 -0.628613 -0.48713 -0.420956 -0.389056 -0.356058 -0.320027 -0.305808 -0.299257 -0.278572 -0.26287 -0.252881 -0.24743 -0.246278 -0.24807 -0.248207 -0.245915 -0.244257 -0.24061 -0.240756 -0.246583 -0.250236 -0.254099 -0.259918 -0.26576 -0.282644 -0.309913 -0.345279 -0.392032 -0.465698 -0.587339 -0.816364 -1.12128 -9.23469 -18.8371 1.01882 -3.9382 1.44979 -0.10716 -0.238527 -0.254509 -0.247092 -0.221928 -0.199542 -0.187374 -0.188371 -0.178754 -0.178536 -0.182473 -0.180048 -0.178327 -0.17731 -0.179385 -0.178841 -0.18261 -0.19015 -0.194084 -0.199436 -0.205161 -0.208053 -0.212004 -0.217383 -0.223283 -0.230473 -0.241858 -0.250907 -0.264054 -0.285216 -0.320395 -0.355311 -0.393938 -0.467571 -0.494248 -0.356649 -2.1222 -4.64693 -12.7505 -4.4868 -2.82776 -1.58069 -0.81732 -0.480516 -0.345354 -0.246223 -0.194216 -0.184517 -0.178611 -0.17229 -0.176533 -0.181717 -0.182347 -0.18136 -0.182253 -0.190886 -0.194472 -0.201419 -0.216264 -0.222463 -0.230615 -0.244827 -0.258024 -0.267148 -0.2728 -0.277847 -0.293249 -0.311342 -0.330171 -0.337134 -0.36383 -0.419138 -0.479781 -0.511247 -0.621347 -0.957764 -1.67875 -5.44712 -10.0798 -21.525 -15.3547 -7.06356 -3.49736 -1.42417 -0.705798 -0.437698 -0.260392 -0.176743 -0.178631 -0.171576 -0.164577 -0.1799 -0.194809 -0.19781 -0.197759 -0.199779 -0.221377 -0.227466 -0.240637 -0.275559 -0.279522 -0.293291 -0.32508 -0.350797 -0.372101 -0.378934 -0.390069 -0.403805 -0.447589 -0.476687 -0.464311 -0.499588 -0.619785 -0.694807 -0.685592 -0.835941 -1.55253 -1.62298 -9.95658 -15.5429
        </DataArray>
        <DataArray type="Float32" Name="cp3" format="ascii">
-187.988 -121.308 -12.3243 -11.9716 -6.52345 -4.0346 -3.04589 -2.44114 -1.84892 -1.54638 -1.37338 -1.1988 -1.05146 -0.991975 -0.917488 -0.833007 -0.759001 -0.712672 -0.680963 -0.658034 -0.640877 -0.612722 -0.584044 -0.56026 -0.526848 -0.516148 -0.514418 -0.500564 -0.487957 -0.469104 -0.454216 -0.467198 -0.474918 -0.493016 -0.517818 -0.579811 -0.706904 -0.865593 0.76478 -15.777 -31.0532 -89.222 -57.3928 -4.07855 -4.8897 -2.73301 -1.78419 -1.44334 -1.18224 -0.916857 -0.789645 -0.720888 -0.652924 -0.584398 -0.550215 -0.531604 -0.490963 -0.460655 -0.441951 -0.430966 -0.424363 -0.420313 -0.413491 -0.402105 -0.395877 -0.387837 -0.38319 -0.388314 -0.389989 -0.388177 -0.389428 -0.390658 -0.40383 -0.423844 -0.452844 -0.488889 -0.545928 -0.641214 -0.828689 -1.04954 -8.70032 -17.9606 1.28398 -6.59968 2.20322 -0.384415 -0.550292 -0.565834 -0.539614 -0.468818 -0.402545 -0.36456 -0.350771 -0.322193 -0.312357 -0.310521 -0.299988 -0.291989 -0.284975 -0.283788 -0.27994 -0.281108 -0.288124 -0.290925 -0.294625 -0.299962 -0.302529 -0.306814 -0.312881 -0.318853 -0.326462 -0.337748 -0.346008 -0.358764 -0.37724 -0.412954 -0.448196 -0.485956 -0.545913 -0.581252 -0.43871 -2.30523 -4.84774 -22.8659 -8.00987 -5.31705 -3.24747 -1.81133 -1.12417 -0.86273 -0.643084 -0.497779 -0.441929 -0.401723 -0.371528 -0.360748 -0.358444 -0.352697 -0.345605 -0.336132 -0.343037 -0.343156 -0.345079 -0.362744 -0.371542 -0.379194 -0.393934 -0.41302 -0.424959 -0.432462 -0.436363 -0.456587 -0.475783 -0.499167 -0.505334 -0.52612 -0.587327 -0.661748 -0.688887 -0.796763 -1.17324 -2.00981 -6.10628 -10.9476 -38.7557 -27.9284 -13.4372 -7.31346 -3.39322 -1.88743 -1.29796 -0.874508 -0.630748 -0.556796 -0.503632 -0.456421 -0.451965 -0.46314 -0.459529 -0.45181 -0.437976 -0.460137 -0.463697 -0.470336 -0.517021 -0.526476 -0.539944 -0.577943 -0.613446 -0.646058 -0.657287 -0.672592 -0.68497 -0.738939 -0.777872 -0.761341 -0.787992 -0.929837 -1.03388 -1.02366 -1.18269 -1.99455 -2.25399 -11.3403 -17.0676
        </DataArray>
      </PointData>
      <Points>
        <DataArray type="Float32" Name="network2" NumberOfComponents="3" format="ascii">
0.7084 0.5857 0.0142
0.7062 0.5857 0.0149
0.704 0.5857 0.0154
0.7018 0.5857 0.0159
0.6996 0.5857 0.0164
0.6974 0.5857 0.0168
0.6953 0.5857 0.0171
0.6932 0.5857 0.0175
0.6911 0.5857 0.0178
0.6891 0.5857 0.018
0.687 0.5857 0.0182
0.685 0.5857 0.0184
0.6831 0.5857 0.0185
0.6812 0.5857 0.0186
0.6793 0.5857 0.0187
0.6774 0.5857 0.0188
0.6756 0.5857 0.0188
0.6738 0.5857 0.0188
0.672 0.5857 0.0188
0.6703 0.5857 0.0188
0.6687 0.5857 0.0188
0.667 0.5857 0.0188
0.6655 0.5857 0.0187
0.6639 0.5857 0.0187
0.6624 0.5857 0.0186
0.661 0.5857 0.0185
0.6596 0.5857 0.0184
0.6582 0.5857 0.0183
0.6569 0.5857 0.0182
0.6557 0.5857 0.0181
0.6545 0.5857 0.0179
0.6534 0.5857 0.0178
0.6523 0.5857 0.0176
0.6513 0.5857 0.0174
0.6504 0.5857 0.0172
0.6496 0.5857 0.0169
0.6489 0.5857 0.0165
0.6484 0.5857 0.0161
0.648 0.5857 0.0157
0.6478 0.5857 0.0153
0.6477 0.5857 0.015
0.7084 0.5857 0.0142
0.7062 0.5857 0.0148
0.7039 0.5857 0.0152
0.7017 0.5857 0.0156
0.6995 0.5857 0.0159
0.6974 0.5857 0.0161
0.6953 0.5857 0.0163
0.6932 0.5857 0.0165
0.6911 0.5857 0.0166
0.689 0.5857 0.0167
0.687 0.5857 0.0168
0.685 0.5857 0.0169
0.6831 0.5857 0.0169
0.6812 0.5857 0.0169
0.6793 0.5857 0.017
0.6774 0.5857 0.017
0.6756 0.5857 0.017
0.6738 0.5857 0.017
0.6721 0.5857 0.017
0.6704 0.5857 0.017
0.6687 0.5857 0.017
0.6671 0.5857 0.017
0.6655 0.5857 0.0169
0.664 0.5857 0.0169
0.6625 0.5857 0.0169
0.661 0.5857 0.0168
0.6596 0.5857 0.0168
0.6583 0.5857 0.0168
0.657 0.5857 0.0167
0.6558 0.5857 0.0167
0.6546 0.5857 0.0166
0.6535 0.5857 0.0165
0.6524 0.5857 0.0164
0.6514 0.5857 0.0163
0.6505 0.5857 0.0162
0.6497 0.5857 0.016
0.649 0.5857 0.0158
0.6484 0.5857 0.0156
0.648 0.5857 0.0154
0.6478 0.5857 0.0152
0.6477 0.5857 0.015
0.7084 0.5857 0.0142
0.7061 0.5857 0.0147
0.7039 0.5857 0.015
0.7017 0.5857 0.0152
0.6995 0.5857 0.0154
0.6973 0.5857 0.0155
0.6952 0.5857 0.0155
0.6931 0.5857 0.0155
0.691 0.5857 0.0155
0.689 0.5857 0.0154
0.687 0.5857 0.0154
0.685 0.5857 0.0153
0.6831 0.5857 0.0153
0.6812 0.5857 0.0153
0.6793 0.5857 0.0152
0.6774 0.5857 0.0152
0.6756 0.5857 0.0152
0.6738 0.5857 0.0152
0.6721 0.5857 0.0151
0.6704 0.5857 0.0151
0.6687 0.5857 0.0151
0.6671 0.5857 0.0151
0.6655 0.5857 0.0151
0.664 0.5857 0.0151
0.6625 0.5857 0.0152
0.6611 0.5857 0.0152
0.6597 0.5857 0.0152
0.6583 0.5857 0.0152
0.6571 0.5857 0.0152
0.6558 0.5857 0.0152
0.6546 0.5857 0.0153
0.6535 0.5857 0.0153
0.6525 0.5857 0.0153
0.6515 0.5857 0.0153
0.6506 0.5857 0.0153
0.6498 0.5857 0.0152
0.649 0.5857 0.0152
0.6485 0.5857 0.0151
0.648 0.5857 0.0151
0.6478 0.5857 0.015
0.6477 0.5857 0.015
0.7084 0.5857 0.0142
0.7061 0.5857 0.0146
0.7039 0.5857 0.0148
0.7016 0.5857 0.0149
0.6995 0.5857 0.0149
0.6973 0.5857 0.0149
0.6952 0.5857 0.0147
0.6931 0.5857 0.0145
0.691 0.5857 0.0143
0.689 0.5857 0.0141
0.687 0.5857 0.014
0.685 0.5857 0.0138
0.6831 0.5857 0.0137
0.6812 0.5857 0.0136
0.6793 0.5857 0.0135
0.6774 0.5857 0.0134
0.6756 0.5857 0.0134
0.6738 0.5857 0.0133
0.6721 0.5857 0.0133
0.6704 0.5857 0.0133
0.6688 0.5857 0.0133
0.6671 0.5857 0.0133
0.6656 0.5857 0.0133
0.664 0.5857 0.0134
0.6626 0.5857 0.0134
0.6611 0.5857 0.0135
0.6597 0.5857 0.0136
0.6584 0.5857 0.0137
0.6571 0.5857 0.0137
0.6559 0.5857 0.0138
0.6547 0.5857 0.0139
0.6536 0.5857 0.014
0.6525 0.5857 0.0141
0.6516 0.5857 0.0142
0.6506 0.5857 0.0143
0.6498 0.5857 0.0144
0.6491 0.5857 0.0145
0.6485 0.5857 0.0146
0.648 0.5857 0.0148
0.6478 0.5857 0.0149
0.6477 0.5857 0.015
0.7084 0.5857 0.0142
0.7061 0.5857 0.0144
0.7038 0.5857 0.0146
0.7016 0.5857 0.0146
0.6994 0.5857 0.0144
0.6972 0.5857 0.0142
0.6951 0.5857 0.0139
0.693 0.5857 0.0136
0.691 0.5857 0.0132
0.689 0.5857 0.0129
0.687 0.5857 0.0126
0.685 0.5857 0.0123
0.6831 0.5857 0.0121
0.6812 0.5857 0.0119
0.6793 0.5857 0.0118
0.6774 0.5857 0.0117
0.6756 0.5857 0.0116
0.6739 0.5857 0.0115
0.6721 0.5857 0.0115
0.6704 0.5857 0.0114
0.6688 0.5857 0.0114
0.6672 0.5857 0.0115
0.6656 0.5857 0.0115
0.6641 0.5857 0.0116
0.6626 0.5857 0.0117
0.6612 0.5857 0.0118
0.6598 0.5857 0.012
0.6584 0.5857 0.0121
0.6572 0.5857 0.0123
0.6559 0.5857 0.0124
0.6548 0.5857 0.0126
0.6537 0.5857 0.0128
0.6526 0.5857 0.0129
0.6516 0.5857 0.0131
0.6507 0.5857 0.0134
0.6499 0.5857 0.0136
0.6492 0.5857 0.0138
0.6485 0.5857 0.0141
0.6481 0.5857 0.0145
0.6478 0.5857 0.0148
0.6477 0.5857 0.015
        </DataArray>
      </Points>
      <Cells>
        <DataArray type="Int32" Name="connectivity" format="ascii">
0 41 42 1
1 42 43 2
2 43 44 3
3 44 45 4
4 45 46 5
5 46 47 6
6 47 48 7
7 48 49 8
8 49 50 9
9 50 51 10
10 51 52 11
11 52 53 12
12 53 54 13
13 54 55 14
14 55 56 15
15 56 57 16
16 57 58 17
17 58 59 18
18 59 60 19
19 60 61 20
20 61 62 21
21 62 63 22
22 63 64 23
23 64 65 24
24 65 66 25
25 66 67 26
26 67 68 27
27 68 69 28
28 69 70 29
29 70 71 30
30 71 72 31
31 72 73 32
32 73 74 33
33 74 75 34
34 75 76 35
35 76 77 36
36 77 78 37
37 78 79 38
38 79 80 39
39 80 81 40
41 82 83 42
42 83 84 43
43 84 85 44
44 85 86 45
45 86 87 46
46 87 88 47
47 88 89 48
48 89 90 49
49 90 91 50
50 91 92 51
51 92 93 52
52 93 94 53
53 94 95 54
54 95 96 55
55 96 97 56
56 97 98 57
57 98 99 58
58 99 100 59
59 100 101 60
60 101 102 61
61 102 103 62
62 103 104 63
63 104 105 64
64 105 106 65
65 106 107 66
66 107 108 67
67 108 109 68
68 109 110 69
69 110 111 70
70 111 112 71
71 112 113 72
72 113 114 73
73 114 115 74
74 115 116 75
75 116 117 76
76 117 118 77
77 118 119 78
78 119 120 79
79 120 121 80
80 121 122 81
82 123 124 83
83 124 125 84
84 125 126 85
85 126 127 86
86 127 128 87
87 128 129 88
88 129 130 89
89 130 131 90
90 131 132 91
91 132 133 92
92 133 134 93
93 134 135 94
94 135 136 95
95 136 137 96
96 137 138 97
97 138 139 98
98 139 140 99
99 140 141 100
100 141 142 101
101 142 143 102
102 143 144 103
103 144 145 104
104 145 146 105
105 146 147 106
106 147 148 107
107 148 149 108
108 149 150 109
109 150 151 110
110 151 152 111
111 152 153 112
112 153 154 113
113 154 155 114
114 155 156 115
115 156 157 116
116 157 158 117
117 158 159 118
118 159 160 119
119 160 161 120
120 161 162 121
121 162 163 122
123 164 165 124
124 165 166 125
125 166 167 126
126 167 168 127
127 168 169 128
128 169 170 129
129 170 171 130
130 171 172 131
131 172 173 132
132 173 174 133
133 174 175 134
134 175 176 135
135 176 177 136
136 177 178 137
137 178 179 138
138 179 180 139
139 180 181 140
140 181 182 141
141 182 183 142
142 183 184 143
143 184 185 144
144 185 186 145
145 186 187 146
146 187 188 147
147 188 189 148
148 189 190 149
149 190 191 150
150 191 192 151
151 192 193 152
152 193 194 153
153 194 195 154
154 195 196 155
155 196 197 156
156 197 198 157
157 198 199 158
158 199 200 159
159 200 201 160
160 201 202 161
161 202 203 162
162 203 204 163
        </DataArray>
        <DataArray type="Int32" Name="offsets" format="ascii">
4 8 12 16 20 24 28 32 36 40 44 48 52 56 60 64 68 72 76 80 84 88 92 96 100 104 108 112 116 120 124 128 132 136 140 144 148 152 156 160 164 168 172 176 180 184 188 192 196 200 204 208 212 216 220 224 228 232 236 240 244 248 252 256 260 264 268 272 276 280 284 288 292 296 300 304 308 312 316 320 324 328 332 336 340 344 348 352 356 360 364 368 372 376 380 384 388 392 396 400 404 408 412 416 420 424 428 432 436 440 444 448 452 456 460 464 468 472 476 480 484 488 492 496 500 504 508 512 516 520 524 528 532 536 540 544 548 552 556 560 564 568 572 576 580 584 588 592 596 600 604 608 612 616 620 624 628 632 636 640
        </DataArray>
        <DataArray type="Int32" Name="types" format="ascii">
9 9 9 9 9 9 9 9 9 9 9 9 9 9 9 9 9 9 9 9 9 9 9 9 9 9 9 9 9 9 9 9 9 9 9 9 9 9 9 9 9 9 9 9 9 9 9 9 9 9 9 9 9 9 9 9 9 9 9 9 9 9 9 9 9 9 9 9 9 9 9 9 9 9 9 9 9 9 9 9 9 9 9 9 9 9 9 9 9 9 9 9 9 9 9 9 9 9 9 9 9 9 9 9 9 9 9 9 9 9 9 9 9 9 9 9 9 9 9 9 9 9 9 9 9 9 9 9 9 9 9 9 9 9 9 9 9 9 9 9 9 9 9 9 9 9 9 9 9 9 9 9 9 9 9 9 9 9 9 9
        </DataArray>
      </Cells>
    </Piece>
  </UnstructuredGrid>
</VTKFile>
