<?xml version="1.0"?>
<VTKFile type="UnstructuredGrid" version="1.0" byte_order="LittleEndian">
  <UnstructuredGrid>
    <Piece NumberOfPoints="280" NumberOfCells="238">
      <PointData Scalars="scalars">
        <DataArray type="Float32" Name="cp1" format="ascii">
-14.8312 -8.78376 -1.3188 -0.912681 -0.671692 -0.500305 -0.384726 -0.307111 -0.254933 -0.21974 -0.195817 -0.179677 -0.169135 -0.162664 -0.159217 -0.158106 -0.158687 -0.16044 -0.162919 -0.165608 -0.167848 -0.168955 -0.16817 -0.164584 -0.157087 -0.144354 -0.12464 -0.0953103 -0.0523408 0.0108831 0.105826 0.256369 0.522737 0.721042 0.770066 -19.9198 -13.08 -5.50653 -3.12 -1.96746 -1.33507 -0.961675 -0.728607 -0.576707 -0.474407 -0.403576 -0.353481 -0.317672 -0.291966 -0.273614 -0.260775 -0.252136 -0.246661 -0.243516 -0.241973 -0.241312 -0.240783 -0.239646 -0.237103 -0.232208 -0.223888 -0.210765 -0.190842 -0.160928 -0.115461 -0.0440505 0.075119 0.285258 0.536002 0.746047 -29.9561 -18.7611 -7.63005 -4.38438 -2.79879 -1.91413 -1.38543 -1.0517 -0.831521 -0.681216 -0.575502 -0.499308 -0.443504 -0.402209 -0.371534 -0.348845 -0.332318 -0.320597 -0.312573 -0.307365 -0.3042 -0.3023 -0.300927 -0.299382 -0.296884 -0.292594 -0.285538 -0.274366 -0.257003 -0.22963 -0.184534 -0.1015 0.0734724 0.368947 0.700986 -37.3558 -23.1907 -9.34019 -5.33746 -3.3975 -2.32196 -1.68095 -1.27622 -1.00829 -0.824207 -0.693768 -0.598936 -0.5287 -0.476038 -0.436327 -0.406413 -0.384107 -0.367834 -0.35635 -0.348667 -0.343966 -0.341461 -0.340417 -0.340177 -0.340078 -0.339454 -0.337597 -0.333619 -0.326235 -0.312945 -0.288301 -0.235867 -0.106736 0.217469 0.654396 -38.6399 -24.0274 -9.76394 -5.61567 -3.59239 -2.46368 -1.787 -1.35739 -1.07147 -0.873899 -0.733189 -0.630467 -0.554077 -0.496572 -0.453097 -0.420328 -0.395946 -0.378308 -0.366138 -0.358441 -0.354389 -0.353216 -0.354238 -0.35685 -0.360479 -0.364635 -0.368865 -0.372722 -0.375652 -0.376411 -0.371756 -0.348713 -0.261829 0.0856826 0.609632 -33.108 -20.8202 -8.69946 -5.10147 -3.3088 -2.28894 -1.6682 -1.2696 -1.00214 -0.816255 -0.683401 -0.586275 -0.514143 -0.460059 -0.419497 -0.389395 -0.367564 -0.352486 -0.342979 -0.338126 -0.337183 -0.339443 -0.344283 -0.351191 -0.359693 -0.369471 -0.380331 -0.392209 -0.405195 -0.419171 -0.432871 -0.436263 -0.381683 -0.013329 0.579758 -22.9278 -15.0798 -6.49122 -3.76261 -2.41801 -1.66239 -1.20584 -0.914634 -0.720617 -0.58698 -0.492709 -0.42504 -0.376167 -0.340982 -0.316189 -0.299619 -0.289714 -0.285373 -0.285768 -0.290216 -0.298192 -0.309169 -0.322663 -0.338297 -0.355744 -0.374845 -0.395631 -0.418271 -0.443068 -0.469977 -0.496853 -0.50985 -0.449668 -0.0615347 0.563145 -17.1115 -10.0871 -1.46671 -1.0206 -0.75247 -0.55629 -0.42196 -0.330826 -0.268886 -0.226744 -0.19858 -0.180569 -0.170254 -0.16596 -0.166574 -0.171504 -0.18026 -0.192509 -0.207981 -0.226367 -0.247477 -0.271074 -0.296861 -0.32464 -0.35423 -0.385627 -0.419074 -0.45496 -0.493853 -0.536287 -0.582298 -0.624334 -0.600183 -0.10127 0.557191
        </DataArray>
        <DataArray type="Float32" Name="cp2" format="ascii">
0.163271 0.144188 0.109951 0.0851053 0.0654714 0.0480503 0.031988 0.0169078 0.00255914 -0.0112359 -0.0246494 -0.0378629 -0.0511305 -0.0646273 -0.0785125 -0.0929876 -0.108122 -0.123933 -0.140374 -0.157267 -0.174369 -0.191351 -0.207774 -0.223144 -0.236835 -0.248156 -0.256258 -0.259794 -0.25656 -0.242583 -0.210144 -0.13881 0.0516881 0.462023 0.86609 0.160823 0.140056 0.105816 0.0799749 0.0598406 0.042708 0.027353 0.0131946 -0.000109006 -0.0127984 -0.025063 -0.0370864 -0.049091 -0.0612414 -0.0737009 -0.0866252 -0.100081 -0.11409 -0.128594 -0.143463 -0.158498 -0.173395 -0.187785 -0.20127 -0.213351 -0.223488 -0.231022 -0.234946 -0.233544 -0.223367 -0.196671 -0.132153 0.0319173 0.393637 0.851866 0.174864 0.14816 0.108232 0.0805999 0.0598067 0.0424554 0.027155 0.01326 0.000371084 -0.0118021 -0.0234587 -0.0347816 -0.0459956 -0.0572635 -0.068752 -0.0805979 -0.0928711 -0.105605 -0.11874 -0.132172 -0.145744 -0.159168 -0.172118 -0.184264 -0.19519 -0.204474 -0.211628 -0.215973 -0.21644 -0.210798 -0.193861 -0.148765 -0.0160124 0.342423 0.829358 0.198826 0.165145 0.119576 0.0891103 0.0664105 0.047727 0.0315002 0.0169708 0.00365978 -0.00878112 -0.0205802 -0.0319385 -0.0430956 -0.0542239 -0.0654965 -0.0770432 -0.088945 -0.101244 -0.113884 -0.126769 -0.139751 -0.152562 -0.164886 -0.176404 -0.186736 -0.195481 -0.202185 -0.206241 -0.206726 -0.20166 -0.186376 -0.14548 -0.0260578 0.324227 0.816984 0.19931 0.165447 0.119714 0.0891959 0.0664736 0.0477766 0.0315414 0.0170024 0.003683 -0.00875825 -0.0205571 -0.0319184 -0.0430813 -0.0542143 -0.0654881 -0.0770368 -0.0889419 -0.101243 -0.113884 -0.12677 -0.139752 -0.152564 -0.164888 -0.176405 -0.186734 -0.195472 -0.202169 -0.20623 -0.206727 -0.20165 -0.186337 -0.145418 -0.0259513 0.324374 0.817087 0.176142 0.14899 0.108683 0.0809147 0.0600505 0.0426553 0.0273251 0.0133983 0.000480381 -0.0117028 -0.0233691 -0.0347079 -0.0459377 -0.057218 -0.0687159 -0.080571 -0.0928539 -0.105597 -0.118737 -0.132174 -0.145748 -0.159173 -0.172121 -0.184262 -0.195179 -0.204446 -0.21158 -0.215908 -0.21637 -0.210693 -0.193637 -0.148372 -0.0154694 0.343038 0.829929 0.161794 0.140665 0.106102 0.080189 0.0600197 0.0428677 0.0275031 0.0133255 -1.5844e-06 -0.0126969 -0.0249705 -0.0370104 -0.0490265 -0.0611864 -0.0736594 -0.0865942 -0.100057 -0.114074 -0.128584 -0.143457 -0.158495 -0.173393 -0.187782 -0.201262 -0.213334 -0.223457 -0.230971 -0.234863 -0.23345 -0.223269 -0.196474 -0.131843 0.0322011 0.394204 0.852883 0.163624 0.144118 0.109476 0.0848138 0.065285 0.0479336 0.0319334 0.0168846 0.00253904 -0.0112301 -0.0246291 -0.0378455 -0.0511077 -0.0645998 -0.0784959 -0.0929748 -0.108103 -0.123914 -0.140354 -0.157247 -0.174349 -0.191331 -0.207753 -0.223122 -0.236812 -0.248127 -0.256221 -0.25973 -0.256532 -0.242646 -0.210191 -0.138952 0.0509379 0.46201 0.867189
        </DataArray>
        <DataArray type="Float32" Name="cp3" format="ascii">
-1.96851 -1.11716 -0.0827302 -0.0498712 -0.03449 -0.0254361 -0.0227104 -0.0245016 -0.0292737 -0.0360532 -0.0443639 -0.0538939 -0.0645618 -0.0763249 -0.0891919 -0.103284 -0.118625 -0.135216 -0.153004 -0.171823 -0.191485 -0.211723 -0.232166 -0.252432 -0.27205 -0.290552 -0.307436 -0.321888 -0.332515 -0.336654 -0.32875 -0.291703 -0.144287 0.304446 0.795302 -2.70528 -1.75854 -0.73738 -0.420385 -0.267523 -0.184814 -0.138182 -0.111694 -0.0970656 -0.089838 -0.0875332 -0.0886556 -0.0923695 -0.0981446 -0.1057 -0.114891 -0.125578 -0.137647 -0.150956 -0.165318 -0.180518 -0.196252 -0.212168 -0.227917 -0.243087 -0.257285 -0.270083 -0.280852 -0.288488 -0.29054 -0.280823 -0.239782 -0.103075 0.272936 0.786294 -3.86202 -2.40712 -0.991305 -0.577716 -0.373641 -0.260252 -0.194238 -0.154768 -0.130993 -0.117018 -0.109474 -0.106312 -0.10636 -0.108868 -0.113414 -0.119725 -0.127577 -0.136812 -0.147237 -0.158653 -0.170838 -0.183468 -0.196195 -0.208689 -0.220564 -0.231465 -0.241025 -0.248777 -0.25402 -0.255181 -0.248235 -0.218278 -0.106507 0.257272 0.775219 -4.28036 -2.62755 -1.02946 -0.578633 -0.363844 -0.24856 -0.183462 -0.145619 -0.123503 -0.110996 -0.104619 -0.102343 -0.103023 -0.105937 -0.110669 -0.116943 -0.124555 -0.133351 -0.143138 -0.153718 -0.164863 -0.176254 -0.18754 -0.198373 -0.208364 -0.21712 -0.224216 -0.229109 -0.231003 -0.228143 -0.216253 -0.180652 -0.0684857 0.280672 0.777823 -3.88434 -2.36312 -0.889711 -0.486168 -0.298715 -0.201058 -0.14785 -0.11834 -0.102284 -0.0942807 -0.0913158 -0.091695 -0.0944555 -0.0990048 -0.105004 -0.112241 -0.120556 -0.129816 -0.139837 -0.150423 -0.161352 -0.172297 -0.182889 -0.192765 -0.201501 -0.208645 -0.213689 -0.21596 -0.214408 -0.206819 -0.188186 -0.142688 -0.0165206 0.325698 0.795662 -2.89663 -1.75876 -0.637863 -0.338377 -0.202245 -0.133812 -0.0986386 -0.0810109 -0.0732313 -0.0712539 -0.072839 -0.0767623 -0.0823445 -0.08919 -0.09709 -0.105925 -0.115588 -0.125975 -0.136916 -0.148228 -0.15968 -0.170922 -0.181568 -0.191225 -0.199401 -0.205564 -0.209091 -0.209089 -0.204144 -0.191392 -0.164574 -0.105393 0.0463072 0.388088 0.824285 -1.81365 -1.1432 -0.411836 -0.205624 -0.115738 -0.0740178 -0.0552943 -0.0484253 -0.048078 -0.051472 -0.0571102 -0.0642074 -0.0723615 -0.0813642 -0.09113 -0.101617 -0.112759 -0.124475 -0.136619 -0.148988 -0.161305 -0.173189 -0.184202 -0.193852 -0.20152 -0.206502 -0.207903 -0.204352 -0.193617 -0.17138 -0.128556 -0.0429994 0.143369 0.477054 0.860065 -1.32401 -0.736 -0.0247786 -0.0129843 -0.00708685 -0.00642423 -0.01001 -0.016347 -0.0244427 -0.0335597 -0.0432877 -0.0534765 -0.0640721 -0.0751002 -0.0866253 -0.0986989 -0.111291 -0.124364 -0.137795 -0.151349 -0.164681 -0.177376 -0.188904 -0.198646 -0.205817 -0.209505 -0.208538 -0.201069 -0.184269 -0.153059 -0.0978109 0.00383814 0.22994 0.583763 0.88039
        </DataArray>
        <DataArray type="Float32" Name="cp4" format="ascii">
-16.8916 -9.97489 -1.46826 -1.01893 -0.751271 -0.555601 -0.421617 -0.330776 -0.268931 -0.226782 -0.19865 -0.180669 -0.170371 -0.166103 -0.166745 -0.171695 -0.180461 -0.192714 -0.208188 -0.226578 -0.247688 -0.271283 -0.297067 -0.324847 -0.354437 -0.385837 -0.419293 -0.455197 -0.494072 -0.536469 -0.582479 -0.624848 -0.589047 -0.113151 0.501285 -22.7295 -14.9821 -6.48034 -3.7629 -2.42114 -1.66595 -1.20908 -0.91744 -0.722955 -0.588887 -0.494309 -0.426419 -0.377361 -0.34201 -0.31708 -0.30039 -0.290379 -0.285942 -0.286253 -0.290627 -0.298534 -0.309446 -0.32288 -0.338458 -0.355853 -0.374908 -0.395647 -0.418245 -0.442986 -0.469839 -0.496701 -0.509824 -0.445076 -0.0750173 0.505482 -32.9916 -20.7638 -8.69049 -5.1031 -3.31251 -2.29273 -1.67151 -1.27238 -1.00439 -0.818125 -0.685035 -0.58768 -0.515338 -0.461064 -0.420351 -0.390122 -0.368179 -0.352996 -0.3434 -0.338466 -0.337447 -0.339635 -0.344407 -0.351248 -0.359688 -0.369405 -0.380201 -0.392007 -0.404907 -0.418811 -0.432459 -0.436077 -0.376034 -0.0252413 0.522808 -38.6663 -24.0372 -9.76318 -5.61859 -3.59492 -2.46573 -1.78865 -1.3587 -1.07253 -0.874841 -0.734021 -0.631148 -0.554633 -0.497033 -0.453487 -0.420659 -0.396218 -0.378524 -0.366309 -0.358566 -0.354469 -0.353251 -0.354225 -0.356786 -0.360362 -0.364461 -0.368626 -0.372403 -0.375247 -0.375923 -0.371133 -0.348146 -0.256318 0.0758514 0.560282 -37.5383 -23.2736 -9.35047 -5.34446 -3.40134 -2.32434 -1.68258 -1.27742 -1.00932 -0.82503 -0.694333 -0.599378 -0.529064 -0.476338 -0.436571 -0.406616 -0.384268 -0.367958 -0.35644 -0.348718 -0.343977 -0.341431 -0.34034 -0.34005 -0.339894 -0.339204 -0.337269 -0.333219 -0.325769 -0.312376 -0.287554 -0.235112 -0.101998 0.210648 0.617235 -30.2534 -18.896 -7.64605 -4.39245 -2.80196 -1.91549 -1.38606 -1.05205 -0.831837 -0.681394 -0.575521 -0.49932 -0.4435 -0.402178 -0.371486 -0.3488 -0.332261 -0.320521 -0.312473 -0.307235 -0.304038 -0.3021 -0.300684 -0.299089 -0.296531 -0.29217 -0.285032 -0.273772 -0.256323 -0.22884 -0.183523 -0.100385 0.0773517 0.365953 0.679264 -20.2487 -13.2318 -5.51778 -3.1246 -1.96835 -1.33478 -0.96111 -0.728062 -0.576286 -0.474024 -0.403208 -0.353183 -0.317402 -0.291706 -0.273388 -0.260584 -0.251949 -0.24647 -0.243318 -0.241763 -0.241085 -0.240534 -0.239368 -0.236789 -0.231849 -0.223474 -0.210286 -0.190274 -0.160286 -0.114754 -0.0431447 0.0761963 0.28805 0.536433 0.739758 -15.1505 -8.92164 -1.28138 -0.906894 -0.668445 -0.498156 -0.383255 -0.306099 -0.254242 -0.21917 -0.195311 -0.179327 -0.16884 -0.162391 -0.15902 -0.15795 -0.158538 -0.160309 -0.162803 -0.1655 -0.167745 -0.168856 -0.168073 -0.164482 -0.156974 -0.144223 -0.124481 -0.0950956 -0.0521338 0.0110409 0.10615 0.256669 0.525471 0.724398 0.770833
        </DataArray>
      </PointData>
      <Points>
        <DataArray type="Float32" Name="network2" NumberOfComponents="3" format="ascii">
100.0 300.0 0.0
99.7867 300.0 0.031
99.1487 300.0 0.1231
98.0913 300.0 0.274
96.6236 300.0 0.4802
94.7582 300.0 0.7369
92.5109 300.0 1.0382
89.9009 300.0 1.3777
86.9504 300.0 1.7488
83.6848 300.0 2.1441
80.1317 300.0 2.5566
76.3216 300.0 2.9788
72.2869 300.0 3.4034
68.0621 300.0 3.8228
63.6832 300.0 4.2291
59.1875 300.0 4.6141
54.6134 300.0 4.9694
50.0 300.0 5.2861
45.3866 300.0 5.5554
40.8125 300.0 5.7683
36.3168 300.0 5.9163
31.9379 300.0 5.992
27.7131 300.0 5.9889
23.6784 300.0 5.9024
19.8683 300.0 5.7297
16.3152 300.0 5.4701
13.0496 300.0 5.1255
10.0991 300.0 4.6994
7.4891 300.0 4.1975
5.2418 300.0 3.6267
3.3764 300.0 2.9947
1.9087 300.0 2.3093
0.8513 300.0 1.5778
0.2133 300.0 0.8065
0.0 300.0 0.0
100.0 300.0 0.0
99.7867 300.013 0.0279
99.1487 300.053 0.1109
98.0913 300.119 0.2469
96.6236 300.208 0.4327
94.7582 300.32 0.6639
92.5109 300.45 0.9354
89.9009 300.598 1.2413
86.9504 300.759 1.5756
83.6848 300.93 1.9318
80.1317 301.109 2.3034
76.3216 301.292 2.6838
72.2869 301.477 3.0664
68.0621 301.659 3.4442
63.6832 301.835 3.8102
59.1875 302.002 4.1572
54.6134 302.156 4.4773
50.0 302.294 4.7627
45.3866 302.41 5.0052
40.8125 302.503 5.197
36.3168 302.567 5.3304
31.9379 302.6 5.3986
27.7131 302.599 5.3959
23.6784 302.561 5.3179
19.8683 302.486 5.1623
16.3152 302.373 4.9284
13.0496 302.224 4.6179
10.0991 302.039 4.234
7.4891 301.821 3.7818
5.2418 301.574 3.2675
3.3764 301.299 2.6981
1.9087 301.002 2.0806
0.8513 300.685 1.4215
0.2133 300.35 0.7266
0.0 300.0 0.0
100.0 300.0 0.0
99.7867 300.024 0.0193
99.1487 300.096 0.0767
98.0913 300.214 0.1709
96.6236 300.375 0.2994
94.7582 300.576 0.4594
92.5109 300.812 0.6473
89.9009 301.077 0.859
86.9504 301.367 1.0903
83.6848 301.676 1.3368
80.1317 301.999 1.594
76.3216 302.329 1.8573
72.2869 302.661 2.122
68.0621 302.989 2.3835
63.6832 303.306 2.6368
59.1875 303.608 2.8768
54.6134 303.885 3.0984
50.0 304.133 3.2959
45.3866 304.343 3.4637
40.8125 304.51 3.5964
36.3168 304.626 3.6888
31.9379 304.685 3.736
27.7131 304.682 3.734
23.6784 304.615 3.6801
19.8683 304.48 3.5724
16.3152 304.277 3.4106
13.0496 304.007 3.1957
10.0991 303.674 2.93
7.4891 303.282 2.6171
5.2418 302.835 2.2612
3.3764 302.341 1.8671
1.9087 301.805 1.4398
0.8513 301.234 0.9837
0.2133 300.631 0.5028
0.0 300.0 0.0
100.0 300.0 0.0
99.7867 300.03 0.0069
99.1487 300.12 0.0274
98.0913 300.267 0.061
96.6236 300.468 0.1069
94.7582 300.718 0.164
92.5109 301.012 0.231
89.9009 301.343 0.3066
86.9504 301.705 0.3891
83.6848 302.09 0.4771
80.1317 302.493 0.5689
76.3216 302.904 0.6628
72.2869 303.318 0.7573
68.0621 303.727 0.8506
63.6832 304.123 0.9411
59.1875 304.498 1.0267
54.6134 304.845 1.1058
50.0 305.154 1.1763
45.3866 305.416 1.2362
40.8125 305.624 1.2836
36.3168 305.768 1.3165
31.9379 305.842 1.3333
27.7131 305.839 1.3327
23.6784 305.754 1.3134
19.8683 305.586 1.275
16.3152 305.333 1.2172
13.0496 304.997 1.1405
10.0991 304.582 1.0457
7.4891 304.092 0.934
5.2418 303.536 0.807
3.3764 302.92 0.6664
1.9087 302.251 0.5139
0.8513 301.538 0.3511
0.2133 300.786 0.1795
0.0 300.0 0.0
100.0 300.0 0.0
99.7867 300.03 -0.0069
99.1487 300.12 -0.0274
98.0913 300.267 -0.061
96.6236 300.468 -0.1069
94.7582 300.718 -0.164
92.5109 301.012 -0.231
89.9009 301.343 -0.3066
86.9504 301.705 -0.3891
83.6848 302.09 -0.4771
80.1317 302.493 -0.5689
76.3216 302.904 -0.6628
72.2869 303.318 -0.7573
68.0621 303.727 -0.8506
63.6832 304.123 -0.9411
59.1875 304.498 -1.0267
54.6134 304.845 -1.1058
50.0 305.154 -1.1763
45.3866 305.416 -1.2362
40.8125 305.624 -1.2836
36.3168 305.768 -1.3165
31.9379 305.842 -1.3333
27.7131 305.839 -1.3327
23.6784 305.754 -1.3134
19.8683 305.586 -1.275
16.3152 305.333 -1.2172
13.0496 304.997 -1.1405
10.0991 304.582 -1.0457
7.4891 304.092 -0.934
5.2418 303.536 -0.807
3.3764 302.92 -0.6664
1.9087 302.251 -0.5139
0.8513 301.538 -0.3511
0.2133 300.786 -0.1795
0.0 300.0 0.0
100.0 300.0 0.0
99.7867 300.024 -0.0193
99.1487 300.096 -0.0767
98.0913 300.214 -0.1709
96.6236 300.375 -0.2994
94.7582 300.576 -0.4594
92.5109 300.812 -0.6473
89.9009 301.077 -0.859
86.9504 301.367 -1.0903
83.6848 301.676 -1.3368
80.1317 301.999 -1.594
76.3216 302.329 -1.8573
72.2869 302.661 -2.122
68.0621 302.989 -2.3835
63.6832 303.306 -2.6368
59.1875 303.608 -2.8768
54.6134 303.885 -3.0984
50.0 304.133 -3.2959
45.3866 304.343 -3.4637
40.8125 304.51 -3.5964
36.3168 304.626 -3.6888
31.9379 304.685 -3.736
27.7131 304.682 -3.734
23.6784 304.615 -3.6801
19.8683 304.48 -3.5724
16.3152 304.277 -3.4106
13.0496 304.007 -3.1957
10.0991 303.674 -2.93
7.4891 303.282 -2.6171
5.2418 302.835 -2.2612
3.3764 302.341 -1.8671
1.9087 301.805 -1.4398
0.8513 301.234 -0.9837
0.2133 300.631 -0.5028
0.0 300.0 0.0
100.0 300.0 0.0
99.7867 300.013 -0.0279
99.1487 300.053 -0.1109
98.0913 300.119 -0.2469
96.6236 300.208 -0.4327
94.7582 300.32 -0.6639
92.5109 300.45 -0.9354
89.9009 300.598 -1.2413
86.9504 300.759 -1.5756
83.6848 300.93 -1.9318
80.1317 301.109 -2.3034
76.3216 301.292 -2.6838
72.2869 301.477 -3.0664
68.0621 301.659 -3.4442
63.6832 301.835 -3.8102
59.1875 302.002 -4.1572
54.6134 302.156 -4.4773
50.0 302.294 -4.7627
45.3866 302.41 -5.0052
40.8125 302.503 -5.197
36.3168 302.567 -5.3304
31.9379 302.6 -5.3986
27.7131 302.599 -5.3959
23.6784 302.561 -5.3179
19.8683 302.486 -5.1623
16.3152 302.373 -4.9284
13.0496 302.224 -4.6179
10.0991 302.039 -4.234
7.4891 301.821 -3.7818
5.2418 301.574 -3.2675
3.3764 301.299 -2.6981
1.9087 301.002 -2.0806
0.8513 300.685 -1.4215
0.2133 300.35 -0.7266
0.0 300.0 0.0
100.0 300.0 0.0
99.7867 300.0 -0.031
99.1487 300.0 -0.1231
98.0913 300.0 -0.274
96.6236 300.0 -0.4802
94.7582 300.0 -0.7369
92.5109 300.0 -1.0382
89.9009 300.0 -1.3777
86.9504 300.0 -1.7488
83.6848 300.0 -2.1441
80.1317 300.0 -2.5566
76.3216 300.0 -2.9788
72.2869 300.0 -3.4034
68.0621 300.0 -3.8228
63.6832 300.0 -4.2291
59.1875 300.0 -4.6141
54.6134 300.0 -4.9694
50.0 300.0 -5.2861
45.3866 300.0 -5.5554
40.8125 300.0 -5.7683
36.3168 300.0 -5.9163
31.9379 300.0 -5.992
27.7131 300.0 -5.9889
23.6784 300.0 -5.9024
19.8683 300.0 -5.7297
16.3152 300.0 -5.4701
13.0496 300.0 -5.1255
10.0991 300.0 -4.6994
7.4891 300.0 -4.1975
5.2418 300.0 -3.6267
3.3764 300.0 -2.9947
1.9087 300.0 -2.3093
0.8513 300.0 -1.5778
0.2133 300.0 -0.8065
0.0 300.0 0.0
        </DataArray>
      </Points>
      <Cells>
        <DataArray type="Int32" Name="connectivity" format="ascii">
0 35 36 1
1 36 37 2
2 37 38 3
3 38 39 4
4 39 40 5
5 40 41 6
6 41 42 7
7 42 43 8
8 43 44 9
9 44 45 10
10 45 46 11
11 46 47 12
12 47 48 13
13 48 49 14
14 49 50 15
15 50 51 16
16 51 52 17
17 52 53 18
18 53 54 19
19 54 55 20
20 55 56 21
21 56 57 22
22 57 58 23
23 58 59 24
24 59 60 25
25 60 61 26
26 61 62 27
27 62 63 28
28 63 64 29
29 64 65 30
30 65 66 31
31 66 67 32
32 67 68 33
33 68 69 34
35 70 71 36
36 71 72 37
37 72 73 38
38 73 74 39
39 74 75 40
40 75 76 41
41 76 77 42
42 77 78 43
43 78 79 44
44 79 80 45
45 80 81 46
46 81 82 47
47 82 83 48
48 83 84 49
49 84 85 50
50 85 86 51
51 86 87 52
52 87 88 53
53 88 89 54
54 89 90 55
55 90 91 56
56 91 92 57
57 92 93 58
58 93 94 59
59 94 95 60
60 95 96 61
61 96 97 62
62 97 98 63
63 98 99 64
64 99 100 65
65 100 101 66
66 101 102 67
67 102 103 68
68 103 104 69
70 105 106 71
71 106 107 72
72 107 108 73
73 108 109 74
74 109 110 75
75 110 111 76
76 111 112 77
77 112 113 78
78 113 114 79
79 114 115 80
80 115 116 81
81 116 117 82
82 117 118 83
83 118 119 84
84 119 120 85
85 120 121 86
86 121 122 87
87 122 123 88
88 123 124 89
89 124 125 90
90 125 126 91
91 126 127 92
92 127 128 93
93 128 129 94
94 129 130 95
95 130 131 96
96 131 132 97
97 132 133 98
98 133 134 99
99 134 135 100
100 135 136 101
101 136 137 102
102 137 138 103
103 138 139 104
105 140 141 106
106 141 142 107
107 142 143 108
108 143 144 109
109 144 145 110
110 145 146 111
111 146 147 112
112 147 148 113
113 148 149 114
114 149 150 115
115 150 151 116
116 151 152 117
117 152 153 118
118 153 154 119
119 154 155 120
120 155 156 121
121 156 157 122
122 157 158 123
123 158 159 124
124 159 160 125
125 160 161 126
126 161 162 127
127 162 163 128
128 163 164 129
129 164 165 130
130 165 166 131
131 166 167 132
132 167 168 133
133 168 169 134
134 169 170 135
135 170 171 136
136 171 172 137
137 172 173 138
138 173 174 139
140 175 176 141
141 176 177 142
142 177 178 143
143 178 179 144
144 179 180 145
145 180 181 146
146 181 182 147
147 182 183 148
148 183 184 149
149 184 185 150
150 185 186 151
151 186 187 152
152 187 188 153
153 188 189 154
154 189 190 155
155 190 191 156
156 191 192 157
157 192 193 158
158 193 194 159
159 194 195 160
160 195 196 161
161 196 197 162
162 197 198 163
163 198 199 164
164 199 200 165
165 200 201 166
166 201 202 167
167 202 203 168
168 203 204 169
169 204 205 170
170 205 206 171
171 206 207 172
172 207 208 173
173 208 209 174
175 210 211 176
176 211 212 177
177 212 213 178
178 213 214 179
179 214 215 180
180 215 216 181
181 216 217 182
182 217 218 183
183 218 219 184
184 219 220 185
185 220 221 186
186 221 222 187
187 222 223 188
188 223 224 189
189 224 225 190
190 225 226 191
191 226 227 192
192 227 228 193
193 228 229 194
194 229 230 195
195 230 231 196
196 231 232 197
197 232 233 198
198 233 234 199
199 234 235 200
200 235 236 201
201 236 237 202
202 237 238 203
203 238 239 204
204 239 240 205
205 240 241 206
206 241 242 207
207 242 243 208
208 243 244 209
210 245 246 211
211 246 247 212
212 247 248 213
213 248 249 214
214 249 250 215
215 250 251 216
216 251 252 217
217 252 253 218
218 253 254 219
219 254 255 220
220 255 256 221
221 256 257 222
222 257 258 223
223 258 259 224
224 259 260 225
225 260 261 226
226 261 262 227
227 262 263 228
228 263 264 229
229 264 265 230
230 265 266 231
231 266 267 232
232 267 268 233
233 268 269 234
234 269 270 235
235 270 271 236
236 271 272 237
237 272 273 238
238 273 274 239
239 274 275 240
240 275 276 241
241 276 277 242
242 277 278 243
243 278 279 244
        </DataArray>
        <DataArray type="Int32" Name="offsets" format="ascii">
4 8 12 16 20 24 28 32 36 40 44 48 52 56 60 64 68 72 76 80 84 88 92 96 100 104 108 112 116 120 124 128 132 136 140 144 148 152 156 160 164 168 172 176 180 184 188 192 196 200 204 208 212 216 220 224 228 232 236 240 244 248 252 256 260 264 268 272 276 280 284 288 292 296 300 304 308 312 316 320 324 328 332 336 340 344 348 352 356 360 364 368 372 376 380 384 388 392 396 400 404 408 412 416 420 424 428 432 436 440 444 448 452 456 460 464 468 472 476 480 484 488 492 496 500 504 508 512 516 520 524 528 532 536 540 544 548 552 556 560 564 568 572 576 580 584 588 592 596 600 604 608 612 616 620 624 628 632 636 640 644 648 652 656 660 664 668 672 676 680 684 688 692 696 700 704 708 712 716 720 724 728 732 736 740 744 748 752 756 760 764 768 772 776 780 784 788 792 796 800 804 808 812 816 820 824 828 832 836 840 844 848 852 856 860 864 868 872 876 880 884 888 892 896 900 904 908 912 916 920 924 928 932 936 940 944 948 952
        </DataArray>
        <DataArray type="Int32" Name="types" format="ascii">
9 9 9 9 9 9 9 9 9 9 9 9 9 9 9 9 9 9 9 9 9 9 9 9 9 9 9 9 9 9 9 9 9 9 9 9 9 9 9 9 9 9 9 9 9 9 9 9 9 9 9 9 9 9 9 9 9 9 9 9 9 9 9 9 9 9 9 9 9 9 9 9 9 9 9 9 9 9 9 9 9 9 9 9 9 9 9 9 9 9 9 9 9 9 9 9 9 9 9 9 9 9 9 9 9 9 9 9 9 9 9 9 9 9 9 9 9 9 9 9 9 9 9 9 9 9 9 9 9 9 9 9 9 9 9 9 9 9 9 9 9 9 9 9 9 9 9 9 9 9 9 9 9 9 9 9 9 9 9 9 9 9 9 9 9 9 9 9 9 9 9 9 9 9 9 9 9 9 9 9 9 9 9 9 9 9 9 9 9 9 9 9 9 9 9 9 9 9 9 9 9 9 9 9 9 9 9 9 9 9 9 9 9 9 9 9 9 9 9 9 9 9 9 9 9 9 9 9 9 9 9 9 9 9 9 9 9 9
        </DataArray>
      </Cells>
    </Piece>
  </UnstructuredGrid>
</VTKFile>
