<?xml version="1.0"?>
<VTKFile type="UnstructuredGrid" version="1.0" byte_order="LittleEndian">
  <UnstructuredGrid>
    <Piece NumberOfPoints="285" NumberOfCells="252">
      <PointData Scalars="scalars">
        <DataArray type="Float32" Name="cp1" format="ascii">
1.00452 1.00546 0.995089 0.936053 0.786951 0.552632 0.290907 0.0613824 -0.109071 -0.218022 -0.27154 -0.278205 -0.256167 -0.185266 -0.10801 -0.00593195 0.00538547 -0.154924 -0.306938 1.00459 1.0055 0.992653 0.92968 0.78129 0.553901 0.29934 0.0726246 -0.0984287 -0.209019 -0.264126 -0.27232 -0.248923 -0.184965 -0.117176 -0.0198793 -0.0125568 -0.162565 -0.300923 1.0048 1.00563 0.991435 0.928068 0.785678 0.57126 0.330364 0.11219 -0.0564967 -0.169296 -0.229396 -0.24385 -0.226127 -0.16772 -0.101718 -0.0137306 -0.005109 -0.142021 -0.275906 1.00513 1.0053 0.987805 0.921978 0.786656 0.592084 0.376511 0.17927 0.0222599 -0.0879727 -0.152515 -0.176095 -0.169795 -0.122105 -0.0699278 -0.000546092 0.013123 -0.0927732 -0.217892 1.00533 1.00475 0.981453 0.901098 0.74628 0.536783 0.317687 0.128191 -0.0148042 -0.110115 -0.162231 -0.177639 -0.167289 -0.120486 -0.0742378 -0.020025 -7.35616e-05 -0.0393928 -0.0926865 1.00525 1.00506 0.983721 0.906555 0.75333 0.54055 0.312503 0.111196 -0.0422335 -0.143898 -0.197844 -0.211728 -0.197823 -0.147275 -0.0962654 -0.0378115 0.00281805 0.073583 0.155201 1.00504 1.00534 0.988131 0.920714 0.776954 0.565031 0.328932 0.116615 -0.0461361 -0.15411 -0.211393 -0.225725 -0.211546 -0.154667 -0.096201 -0.0259376 0.0183237 0.0957448 0.185443 1.00485 1.00583 0.990531 0.920992 0.762306 0.522714 0.257868 0.0265921 -0.142937 -0.248403 -0.297572 -0.301014 -0.276115 -0.210081 -0.137157 -0.0417157 -0.00297128 -0.0235328 -0.0654866 1.00487 1.00677 0.99333 0.922681 0.755993 0.502626 0.223672 -0.0174681 -0.191298 -0.296372 -0.342113 -0.340838 -0.311169 -0.240955 -0.16046 -0.0575731 -0.0467491 -0.164932 -0.294676 1.00507 1.00635 0.990096 0.917359 0.755851 0.517039 0.256718 0.0313199 -0.133193 -0.235405 -0.283478 -0.288222 -0.266908 -0.207445 -0.136505 -0.0542622 -0.0610304 -0.196018 -0.316666 1.00521 1.00555 0.98507 0.908226 0.754722 0.543443 0.321502 0.130039 -0.0137993 -0.109417 -0.161919 -0.178028 -0.170793 -0.125144 -0.0740413 -0.0184858 -0.0371527 -0.179405 -0.300548 1.005 1.00588 0.98981 0.925928 0.794568 0.607349 0.400969 0.211793 0.0597812 -0.0491073 -0.115465 -0.143061 -0.142729 -0.101522 -0.0549203 0.00173316 -0.0213179 -0.184798 -0.326043 1.00458 1.0063 0.995215 0.938468 0.807274 0.607072 0.378701 0.16752 -0.000278377 -0.116881 -0.183538 -0.205796 -0.195771 -0.145236 -0.0843785 -0.0111615 -0.0346088 -0.223746 -0.392018 1.00432 1.00603 0.996096 0.939607 0.802596 0.589883 0.348271 0.128797 -0.0410942 -0.155047 -0.216193 -0.231759 -0.215565 -0.159274 -0.0969961 -0.0160968 -0.038264 -0.242148 -0.420618 1.00424 1.00597 0.998425 0.945782 0.808294 0.589298 0.341047 0.118771 -0.0507527 -0.163267 -0.222997 -0.237281 -0.222427 -0.159735 -0.0886989 -0.00293518 -0.0173958 -0.232783 -0.430275
        </DataArray>
        <DataArray type="Float32" Name="cp2" format="ascii">
0.999108 1.00395 1.00737 0.972576 0.852173 0.641474 0.391854 0.163624 -0.0120478 -0.128917 -0.190777 -0.205061 -0.188905 -0.124641 -0.0540691 0.0387117 0.0539962 -0.0860183 -0.223202 0.999209 1.00405 1.00511 0.965859 0.845215 0.640813 0.398541 0.173727 -0.0020335 -0.120268 -0.183612 -0.19939 -0.182057 -0.124255 -0.0623483 0.0260487 0.0373658 -0.0923925 -0.216333 0.999465 1.00406 1.00291 0.961536 0.845014 0.652465 0.423782 0.208022 0.0351916 -0.0848908 -0.153098 -0.175146 -0.163441 -0.110872 -0.0504228 0.0290015 0.0415383 -0.0691675 -0.183311 1.00038 1.00488 1.0005 0.955175 0.843278 0.668744 0.464879 0.270274 0.109157 -0.00896994 -0.0828649 -0.11566 -0.116972 -0.0742469 -0.0284037 0.0318818 0.0485783 -0.0123699 -0.0873993 1.00082 1.00353 0.988432 0.917424 0.769422 0.562913 0.343511 0.151469 0.00449419 -0.0956485 -0.152876 -0.173204 -0.166256 -0.122574 -0.0810013 -0.0365594 -0.022342 -0.00353229 0.0159447 1.00123 1.00376 0.987584 0.912245 0.75429 0.532743 0.296579 0.0901752 -0.0655348 -0.167687 -0.221154 -0.234344 -0.219547 -0.16858 -0.117406 -0.0660889 -0.0358356 0.0694834 0.200184 1.0015 1.00545 0.996234 0.935779 0.794235 0.580385 0.341029 0.125988 -0.0385654 -0.147579 -0.205346 -0.219945 -0.206058 -0.147784 -0.0900179 -0.0248325 0.00583504 0.0628511 0.132248 1.00092 1.00421 0.993635 0.927902 0.770318 0.529698 0.263173 0.0304497 -0.140135 -0.246343 -0.296031 -0.299874 -0.27534 -0.209356 -0.136497 -0.0441307 -0.024731 -0.10031 -0.20203 1.00067 1.00229 0.988225 0.916955 0.749731 0.495749 0.215987 -0.0260996 -0.200877 -0.306807 -0.353264 -0.352553 -0.323219 -0.253346 -0.172012 -0.0705484 -0.0752639 -0.232 -0.391172 1.00111 1.0003 0.97988 0.904494 0.743625 0.507574 0.249851 0.0255671 -0.139319 -0.242871 -0.292676 -0.299006 -0.278535 -0.218212 -0.14776 -0.0659739 -0.0821104 -0.236084 -0.365795 1.00131 0.99728 0.965564 0.875044 0.71031 0.492951 0.269809 0.0801691 -0.0604254 -0.152316 -0.201018 -0.213274 -0.201792 -0.15283 -0.0999722 -0.0426028 -0.0665417 -0.220598 -0.34834 1.00153 0.997397 0.966466 0.880136 0.724418 0.517875 0.301436 0.111059 -0.036165 -0.137166 -0.194561 -0.213341 -0.204949 -0.158392 -0.105992 -0.0434775 -0.0677728 -0.238608 -0.386868 1.0018 0.999756 0.975859 0.898055 0.742703 0.522554 0.283331 0.0702107 -0.0936426 -0.203468 -0.262593 -0.277799 -0.26193 -0.205463 -0.139289 -0.0582164 -0.0795491 -0.272921 -0.444828 1.00145 0.999089 0.975167 0.895595 0.732414 0.498589 0.246054 0.0252406 -0.139974 -0.246579 -0.29983 -0.308084 -0.285942 -0.223553 -0.155821 -0.0656835 -0.0838894 -0.290939 -0.473018 1.00142 0.999107 0.977651 0.901385 0.736846 0.4962 0.237239 0.0141942 -0.150179 -0.255097 -0.306843 -0.313761 -0.293096 -0.22386 -0.146803 -0.0515468 -0.062019 -0.281022 -0.482714
        </DataArray>
        <DataArray type="Float32" Name="cp3" format="ascii">
0.983247 0.991798 1.00862 0.997981 0.907138 0.721958 0.486839 0.26216 0.0830678 -0.0404222 -0.10976 -0.131142 -0.120604 -0.0628681 0.00110446 0.0847312 0.103732 -0.0165511 -0.139215 0.983386 0.991965 1.00658 0.991038 0.899028 0.719473 0.491833 0.271155 0.0924969 -0.0320642 -0.102762 -0.125589 -0.11405 -0.0622641 -0.0061381 0.0735099 0.0885597 -0.0214993 -0.131094 0.983712 0.99188 1.0034 0.983954 0.8941 0.7252 0.511035 0.299935 0.124801 -0.00121825 -0.0766339 -0.105744 -0.0997864 -0.0526924 0.00241541 0.0732913 0.0890875 0.00350554 -0.0891467 0.985216 0.993731 1.00166 0.975897 0.887059 0.733172 0.542427 0.352155 0.188491 0.063678 -0.0187604 -0.0603177 -0.0691057 -0.0307236 0.00868395 0.0584125 0.0741161 0.0502951 0.0264973 0.985836 0.991409 0.983154 0.919353 0.775906 0.570793 0.350449 0.155841 0.00501598 -0.100017 -0.162719 -0.188608 -0.185974 -0.146392 -0.110552 -0.0791534 -0.0791075 -0.0250614 0.0450512 0.986727 0.991751 0.979916 0.905095 0.741081 0.509919 0.265357 0.0538274 -0.104278 -0.207311 -0.261006 -0.274498 -0.260181 -0.210036 -0.159123 -0.117054 -0.104685 0.00487032 0.151154 0.98753 0.995122 0.993891 0.940481 0.801523 0.586422 0.344619 0.127564 -0.03831 -0.148147 -0.206413 -0.221467 -0.208208 -0.148283 -0.0913005 -0.0325692 -0.0193825 -0.00284203 0.0298165 0.986561 0.992365 0.987026 0.925859 0.770383 0.529871 0.26273 0.0293828 -0.141731 -0.248434 -0.298618 -0.302999 -0.279043 -0.21322 -0.140633 -0.0522635 -0.0544775 -0.193933 -0.360989 0.986063 0.987732 0.973854 0.903059 0.736591 0.483337 0.203964 -0.0381573 -0.213297 -0.319783 -0.366878 -0.36679 -0.337916 -0.268368 -0.186404 -0.0871772 -0.107974 -0.304058 -0.491473 0.986735 0.983935 0.959537 0.881768 0.72198 0.489329 0.234923 0.012386 -0.152421 -0.257058 -0.308519 -0.316523 -0.297193 -0.23668 -0.166895 -0.0858406 -0.110668 -0.281526 -0.418609 0.986927 0.978327 0.934711 0.829633 0.653111 0.429802 0.206171 0.0192657 -0.117288 -0.204905 -0.249538 -0.257921 -0.242266 -0.190247 -0.136027 -0.0774724 -0.105648 -0.268509 -0.401044 0.987586 0.978229 0.931816 0.822425 0.64242 0.417622 0.192874 0.00314929 -0.137724 -0.229706 -0.277431 -0.287034 -0.270293 -0.217729 -0.159831 -0.0923389 -0.117415 -0.293873 -0.447614 0.988568 0.982651 0.945745 0.847014 0.668454 0.43016 0.182293 -0.0306752 -0.188887 -0.290689 -0.34144 -0.349105 -0.327161 -0.264518 -0.193039 -0.104335 -0.123389 -0.320208 -0.494917 0.98811 0.981579 0.943508 0.841081 0.652813 0.399809 0.138649 -0.0813749 -0.240218 -0.338251 -0.382795 -0.383249 -0.354915 -0.286321 -0.213114 -0.113666 -0.127681 -0.337312 -0.522495 0.988123 0.981665 0.946103 0.846378 0.655852 0.395528 0.1282 -0.0934697 -0.251011 -0.34713 -0.390096 -0.389169 -0.362452 -0.286592 -0.203494 -0.0986347 -0.104905 -0.326953 -0.532368
        </DataArray>
      </PointData>
      <Points>
        <DataArray type="Float32" Name="network5" NumberOfComponents="3" format="ascii">
-77.0 0.0 25.5
-76.9956 0.0 25.2039
-76.9316 0.0 24.3402
-76.6741 0.0 22.9807
-76.0527 0.0 21.2402
-74.9214 0.0 19.2659
-73.2119 0.0 17.2224
-70.9638 0.0 15.2706
-68.3231 0.0 13.5457
-65.5137 0.0 12.1379
-62.7931 0.0 11.0822
-60.4076 0.0 10.3612
-58.5607 0.0 9.9203
-57.397 0.0 9.6922
-57.0 0.0 9.623
-48.6525 0.0 8.2137
-28.5 0.0 4.8115
-8.3475 0.0 1.4093
0.0 0.0 0.0
-77.0 0.0 25.5
-76.9956 0.0433 25.2039
-76.9316 0.1694 24.3402
-76.6741 0.3668 22.9807
-76.0527 0.6175 21.2402
-74.9214 0.8991 19.2659
-73.2119 1.187 17.2224
-70.9638 1.4579 15.2706
-68.3231 1.6929 13.5457
-65.5137 1.8804 12.1379
-62.7931 2.0169 11.0822
-60.4076 2.1066 10.3612
-58.5607 2.1589 9.9203
-57.397 2.1845 9.6922
-57.0 2.192 9.623
-48.6525 2.3428 8.2137
-28.5 2.7069 4.8115
-8.3475 3.071 1.4093
0.0 3.2218 0.0
-77.0 0.0 25.5
-76.9956 0.1479 25.2039
-76.9316 0.5784 24.3402
-76.6741 1.2522 22.9807
-76.0527 2.1084 21.2402
-74.9214 3.0698 19.2659
-73.2119 4.0527 17.2224
-70.9638 4.9774 15.2706
-68.3231 5.7799 13.5457
-65.5137 6.4199 12.1379
-62.7931 6.886 11.0822
-60.4076 7.1923 10.3612
-58.5607 7.3708 9.9203
-57.397 7.4584 9.6922
-57.0 7.484 9.623
-48.6525 7.9989 8.2137
-28.5 9.242 4.8115
-8.3475 10.4851 1.4093
0.0 11.0 0.0
-77.0 0.0 25.5
-76.9956 0.2525 25.2039
-76.9316 0.9873 24.3402
-76.6741 2.1377 22.9807
-76.0527 3.5992 21.2402
-74.9214 5.2404 19.2659
-73.2119 6.9183 17.2224
-70.9638 8.497 15.2706
-68.3231 9.8668 13.5457
-65.5137 10.9595 12.1379
-62.7931 11.7551 11.0822
-60.4076 12.278 10.3612
-58.5607 12.5827 9.9203
-57.397 12.7323 9.6922
-57.0 12.776 9.623
-48.6525 13.655 8.2137
-28.5 15.7771 4.8115
-8.3475 17.8992 1.4093
0.0 18.7782 0.0
-77.0 0.0 25.5
-76.9956 0.2959 25.2039
-76.9316 1.1567 24.3402
-76.6741 2.5044 22.9807
-76.0527 4.2167 21.2402
-74.9214 6.1396 19.2659
-73.2119 8.1053 17.2224
-70.9638 9.9549 15.2706
-68.3231 11.5597 13.5457
-65.5137 12.8399 12.1379
-62.7931 13.772 11.0822
-60.4076 14.3846 10.3612
-58.5607 14.7416 9.9203
-57.397 14.9168 9.6922
-57.0 14.968 9.623
-48.6525 15.9978 8.2137
-28.5 18.484 4.8115
-8.3475 20.9702 1.4093
0.0 22.0 0.0
-77.0 0.0 25.5
-76.9956 0.296 25.2248
-76.9317 1.1573 24.422
-76.6742 2.5055 23.1587
-76.0529 4.2182 21.5416
-74.9216 6.1413 19.7078
-73.2123 8.107 17.8104
-70.9644 9.9563 15.999
-68.3238 11.5608 14.3993
-65.5145 12.8405 13.0947
-62.7937 13.7723 12.1175
-60.408 14.3847 11.4511
-58.561 14.7416 11.0444
-57.397 14.9168 10.8344
-57.0 14.968 10.7708
-48.6525 15.9978 9.4753
-28.5 18.484 6.3479
-8.3475 20.9702 3.2204
0.0 22.0 1.925
-77.0 0.0 25.5
-76.9956 0.2962 25.2457
-76.9317 1.1578 24.5039
-76.6742 2.5065 23.3367
-76.053 4.2197 21.8429
-74.9219 6.143 20.1496
-73.2128 8.1088 18.3983
-70.965 9.9578 16.7274
-68.3245 11.5618 15.2528
-65.5152 12.8411 14.0514
-62.7943 13.7725 13.1528
-60.4085 14.3848 12.541
-58.5612 14.7416 12.1685
-57.3971 14.9168 11.9766
-57.0 14.968 11.9185
-48.6525 15.9978 10.7369
-28.5 18.484 7.8843
-8.3475 20.9702 5.0316
0.0 22.0 3.85
-77.0 0.0 25.5
-76.9956 0.2967 25.3269
-76.9317 1.1599 24.8224
-76.6744 2.5106 24.0292
-76.0536 4.2255 23.0157
-74.923 6.1497 21.869
-73.2145 8.1154 20.6863
-70.9674 9.9634 19.5619
-68.3273 11.5658 18.5742
-65.518 12.8435 17.7745
-62.7967 13.7736 17.1814
-60.4101 14.3851 16.7822
-58.562 14.7416 16.5426
-57.3973 14.9168 16.4211
-57.0 14.968 16.3848
-48.6525 15.9978 15.6461
-28.5 18.484 13.8628
-8.3475 20.9702 12.0794
0.0 22.0 11.3407
-77.0 0.0 25.5
-76.9956 0.2981 25.5231
-76.9318 1.165 25.5913
-76.6749 2.5203 25.7012
-76.0549 4.2394 25.847
-74.9257 6.166 26.0201
-73.2188 8.1314 26.2101
-70.9732 9.9769 26.4049
-68.3341 11.5756 26.5927
-65.5247 12.8493 26.7629
-62.8024 13.7763 26.9074
-60.4141 14.3859 27.0215
-58.5641 14.7417 27.1028
-57.3979 14.9168 27.1512
-57.0 14.968 27.1673
-48.6525 15.9978 27.4979
-28.5 18.484 28.2961
-8.3475 20.9702 29.0944
0.0 22.0 29.425
-77.0 0.0 25.5
-76.9956 0.2995 25.7193
-76.9319 1.17 26.3602
-76.6754 2.5301 27.3732
-76.0562 4.2533 28.6782
-74.9284 6.1822 30.1712
-73.2231 8.1474 31.7338
-70.979 9.9905 33.2479
-68.3408 11.5854 34.6112
-65.5315 12.8551 35.7512
-62.8082 13.7789 36.6335
-60.4182 14.3867 37.2607
-58.5662 14.7417 37.6629
-57.3985 14.9167 37.8813
-57.0 14.968 37.9497
-48.6525 15.9978 39.3497
-28.5 18.484 42.7295
-8.3475 20.9702 46.1093
0.0 22.0 47.5093
-77.0 0.0 25.5
-76.9956 0.3001 25.8005
-76.932 1.1721 26.6787
-76.6756 2.5342 28.0657
-76.0568 4.2591 29.851
-74.9295 6.1889 31.8906
-73.2249 8.1541 34.0218
-70.9814 9.9961 36.0824
-68.3436 11.5894 37.9326
-65.5343 12.8575 39.4743
-62.8105 13.78 40.6621
-60.4198 14.387 41.5019
-58.5671 14.7417 42.0371
-57.3987 14.9167 42.3259
-57.0 14.968 42.416
-48.6525 15.9978 44.2589
-28.5 18.484 48.708
-8.3475 20.9702 53.1571
0.0 22.0 55.0
-77.0 0.0 25.5
-76.9956 0.2561 25.8005
-76.932 1.0005 26.6787
-76.6756 2.163 28.0657
-76.0568 3.6354 29.851
-74.9295 5.2826 31.8906
-73.2249 6.9599 34.0218
-70.9814 8.5322 36.0824
-68.3436 9.8922 37.9326
-65.5343 10.9746 39.4743
-62.8105 11.762 40.6621
-60.4198 12.2801 41.5019
-58.5671 12.5829 42.0371
-57.3987 12.7322 42.3259
-57.0 12.776 42.416
-48.6525 13.655 44.2589
-28.5 15.7771 48.708
-8.3475 17.8992 53.1571
0.0 18.7782 55.0
-77.0 0.0 25.5
-76.9956 0.15 25.8005
-76.932 0.5861 26.6787
-76.6756 1.2671 28.0657
-76.0568 2.1295 29.851
-74.9295 3.0944 31.8906
-73.2249 4.077 34.0218
-70.9814 4.9981 36.0824
-68.3436 5.7947 37.9326
-65.5343 6.4288 39.4743
-62.8105 6.89 40.6621
-60.4198 7.1935 41.5019
-58.5671 7.3709 42.0371
-57.3987 7.4583 42.3259
-57.0 7.484 42.416
-48.6525 7.9989 44.2589
-28.5 9.242 48.708
-8.3475 10.4851 53.1571
0.0 11.0 55.0
-77.0 0.0 25.5
-76.9956 0.0439 25.8005
-76.932 0.1717 26.6787
-76.6756 0.3711 28.0657
-76.0568 0.6237 29.851
-74.9295 0.9063 31.8906
-73.2249 1.1941 34.0218
-70.9814 1.4639 36.0824
-68.3436 1.6972 37.9326
-65.5343 1.8829 39.4743
-62.8105 2.018 40.6621
-60.4198 2.1069 41.5019
-58.5671 2.1589 42.0371
-57.3987 2.1845 42.3259
-57.0 2.192 42.416
-48.6525 2.3428 44.2589
-28.5 2.7069 48.708
-8.3475 3.071 53.1571
0.0 3.2218 55.0
-77.0 0.0 25.5
-76.9956 0.0 25.8005
-76.932 0.0 26.6787
-76.6756 0.0 28.0657
-76.0568 0.0 29.851
-74.9295 0.0 31.8906
-73.2249 0.0 34.0218
-70.9814 0.0 36.0824
-68.3436 0.0 37.9326
-65.5343 0.0 39.4743
-62.8105 0.0 40.6621
-60.4198 0.0 41.5019
-58.5671 0.0 42.0371
-57.3987 0.0 42.3259
-57.0 0.0 42.416
-48.6525 0.0 44.2589
-28.5 0.0 48.708
-8.3475 0.0 53.1571
0.0 0.0 55.0
        </DataArray>
      </Points>
      <Cells>
        <DataArray type="Int32" Name="connectivity" format="ascii">
0 19 20 1
1 20 21 2
2 21 22 3
3 22 23 4
4 23 24 5
5 24 25 6
6 25 26 7
7 26 27 8
8 27 28 9
9 28 29 10
10 29 30 11
11 30 31 12
12 31 32 13
13 32 33 14
14 33 34 15
15 34 35 16
16 35 36 17
17 36 37 18
19 38 39 20
20 39 40 21
21 40 41 22
22 41 42 23
23 42 43 24
24 43 44 25
25 44 45 26
26 45 46 27
27 46 47 28
28 47 48 29
29 48 49 30
30 49 50 31
31 50 51 32
32 51 52 33
33 52 53 34
34 53 54 35
35 54 55 36
36 55 56 37
38 57 58 39
39 58 59 40
40 59 60 41
41 60 61 42
42 61 62 43
43 62 63 44
44 63 64 45
45 64 65 46
46 65 66 47
47 66 67 48
48 67 68 49
49 68 69 50
50 69 70 51
51 70 71 52
52 71 72 53
53 72 73 54
54 73 74 55
55 74 75 56
57 76 77 58
58 77 78 59
59 78 79 60
60 79 80 61
61 80 81 62
62 81 82 63
63 82 83 64
64 83 84 65
65 84 85 66
66 85 86 67
67 86 87 68
68 87 88 69
69 88 89 70
70 89 90 71
71 90 91 72
72 91 92 73
73 92 93 74
74 93 94 75
76 95 96 77
77 96 97 78
78 97 98 79
79 98 99 80
80 99 100 81
81 100 101 82
82 101 102 83
83 102 103 84
84 103 104 85
85 104 105 86
86 105 106 87
87 106 107 88
88 107 108 89
89 108 109 90
90 109 110 91
91 110 111 92
92 111 112 93
93 112 113 94
95 114 115 96
96 115 116 97
97 116 117 98
98 117 118 99
99 118 119 100
100 119 120 101
101 120 121 102
102 121 122 103
103 122 123 104
104 123 124 105
105 124 125 106
106 125 126 107
107 126 127 108
108 127 128 109
109 128 129 110
110 129 130 111
111 130 131 112
112 131 132 113
114 133 134 115
115 134 135 116
116 135 136 117
117 136 137 118
118 137 138 119
119 138 139 120
120 139 140 121
121 140 141 122
122 141 142 123
123 142 143 124
124 143 144 125
125 144 145 126
126 145 146 127
127 146 147 128
128 147 148 129
129 148 149 130
130 149 150 131
131 150 151 132
133 152 153 134
134 153 154 135
135 154 155 136
136 155 156 137
137 156 157 138
138 157 158 139
139 158 159 140
140 159 160 141
141 160 161 142
142 161 162 143
143 162 163 144
144 163 164 145
145 164 165 146
146 165 166 147
147 166 167 148
148 167 168 149
149 168 169 150
150 169 170 151
152 171 172 153
153 172 173 154
154 173 174 155
155 174 175 156
156 175 176 157
157 176 177 158
158 177 178 159
159 178 179 160
160 179 180 161
161 180 181 162
162 181 182 163
163 182 183 164
164 183 184 165
165 184 185 166
166 185 186 167
167 186 187 168
168 187 188 169
169 188 189 170
171 190 191 172
172 191 192 173
173 192 193 174
174 193 194 175
175 194 195 176
176 195 196 177
177 196 197 178
178 197 198 179
179 198 199 180
180 199 200 181
181 200 201 182
182 201 202 183
183 202 203 184
184 203 204 185
185 204 205 186
186 205 206 187
187 206 207 188
188 207 208 189
190 209 210 191
191 210 211 192
192 211 212 193
193 212 213 194
194 213 214 195
195 214 215 196
196 215 216 197
197 216 217 198
198 217 218 199
199 218 219 200
200 219 220 201
201 220 221 202
202 221 222 203
203 222 223 204
204 223 224 205
205 224 225 206
206 225 226 207
207 226 227 208
209 228 229 210
210 229 230 211
211 230 231 212
212 231 232 213
213 232 233 214
214 233 234 215
215 234 235 216
216 235 236 217
217 236 237 218
218 237 238 219
219 238 239 220
220 239 240 221
221 240 241 222
222 241 242 223
223 242 243 224
224 243 244 225
225 244 245 226
226 245 246 227
228 247 248 229
229 248 249 230
230 249 250 231
231 250 251 232
232 251 252 233
233 252 253 234
234 253 254 235
235 254 255 236
236 255 256 237
237 256 257 238
238 257 258 239
239 258 259 240
240 259 260 241
241 260 261 242
242 261 262 243
243 262 263 244
244 263 264 245
245 264 265 246
247 266 267 248
248 267 268 249
249 268 269 250
250 269 270 251
251 270 271 252
252 271 272 253
253 272 273 254
254 273 274 255
255 274 275 256
256 275 276 257
257 276 277 258
258 277 278 259
259 278 279 260
260 279 280 261
261 280 281 262
262 281 282 263
263 282 283 264
264 283 284 265
        </DataArray>
        <DataArray type="Int32" Name="offsets" format="ascii">
4 8 12 16 20 24 28 32 36 40 44 48 52 56 60 64 68 72 76 80 84 88 92 96 100 104 108 112 116 120 124 128 132 136 140 144 148 152 156 160 164 168 172 176 180 184 188 192 196 200 204 208 212 216 220 224 228 232 236 240 244 248 252 256 260 264 268 272 276 280 284 288 292 296 300 304 308 312 316 320 324 328 332 336 340 344 348 352 356 360 364 368 372 376 380 384 388 392 396 400 404 408 412 416 420 424 428 432 436 440 444 448 452 456 460 464 468 472 476 480 484 488 492 496 500 504 508 512 516 520 524 528 532 536 540 544 548 552 556 560 564 568 572 576 580 584 588 592 596 600 604 608 612 616 620 624 628 632 636 640 644 648 652 656 660 664 668 672 676 680 684 688 692 696 700 704 708 712 716 720 724 728 732 736 740 744 748 752 756 760 764 768 772 776 780 784 788 792 796 800 804 808 812 816 820 824 828 832 836 840 844 848 852 856 860 864 868 872 876 880 884 888 892 896 900 904 908 912 916 920 924 928 932 936 940 944 948 952 956 960 964 968 972 976 980 984 988 992 996 1000 1004 1008
        </DataArray>
        <DataArray type="Int32" Name="types" format="ascii">
9 9 9 9 9 9 9 9 9 9 9 9 9 9 9 9 9 9 9 9 9 9 9 9 9 9 9 9 9 9 9 9 9 9 9 9 9 9 9 9 9 9 9 9 9 9 9 9 9 9 9 9 9 9 9 9 9 9 9 9 9 9 9 9 9 9 9 9 9 9 9 9 9 9 9 9 9 9 9 9 9 9 9 9 9 9 9 9 9 9 9 9 9 9 9 9 9 9 9 9 9 9 9 9 9 9 9 9 9 9 9 9 9 9 9 9 9 9 9 9 9 9 9 9 9 9 9 9 9 9 9 9 9 9 9 9 9 9 9 9 9 9 9 9 9 9 9 9 9 9 9 9 9 9 9 9 9 9 9 9 9 9 9 9 9 9 9 9 9 9 9 9 9 9 9 9 9 9 9 9 9 9 9 9 9 9 9 9 9 9 9 9 9 9 9 9 9 9 9 9 9 9 9 9 9 9 9 9 9 9 9 9 9 9 9 9 9 9 9 9 9 9 9 9 9 9 9 9 9 9 9 9 9 9 9 9 9 9 9 9 9 9 9 9 9 9 9 9 9 9 9 9
        </DataArray>
      </Cells>
    </Piece>
  </UnstructuredGrid>
</VTKFile>
