<?xml version="1.0"?>
<VTKFile type="UnstructuredGrid" version="1.0" byte_order="LittleEndian">
  <UnstructuredGrid>
    <Piece NumberOfPoints="49" NumberOfCells="36">
      <PointData Scalars="scalars">
        <DataArray type="Float32" Name="cp1" format="ascii">
-0.164037 -0.164349 -0.1458 -0.093782 0.000819591 0.0553087 0.0778622 -0.217088 -0.206571 -0.191411 -0.147433 -0.0436562 0.0338956 0.0648233 -0.177997 -0.177261 -0.173437 -0.13722 -0.0625249 -0.0018973 0.0181643 -0.111817 -0.120234 -0.116593 -0.10609 -0.0635107 -0.0104792 0.00796805 -0.0913941 -0.0952303 -0.0900659 -0.0802327 -0.0436636 0.00540061 0.0286261 -0.0866087 -0.0868875 -0.0826679 -0.0752063 -0.0401773 0.00765297 0.0284169 -0.0852993 -0.0851422 -0.0817787 -0.0741942 -0.0386155 0.00889295 0.0309335
        </DataArray>
        <DataArray type="Float32" Name="cp2" format="ascii">
-0.172479 -0.170434 -0.14875 -0.0959551 0.0018176 0.0574261 0.0797724 -0.230889 -0.217157 -0.19847 -0.15249 -0.0420702 0.0398759 0.0712411 -0.192712 -0.189815 -0.183756 -0.144288 -0.0600543 0.00694772 0.0282148 -0.123062 -0.131623 -0.127124 -0.113776 -0.062167 -0.00200103 0.0180356 -0.104202 -0.107797 -0.101414 -0.0892715 -0.0445366 0.0120542 0.0371564 -0.100614 -0.100437 -0.0950869 -0.0857958 -0.0429104 0.0125449 0.035399 -0.0990359 -0.0985552 -0.0940274 -0.0842191 -0.0406535 0.0137091 0.0376939
        </DataArray>
        <DataArray type="Float32" Name="cp3" format="ascii">
-0.177588 -0.173192 -0.148443 -0.0950633 0.00501475 0.0608905 0.082788 -0.2428 -0.225673 -0.203547 -0.155775 -0.0393728 0.046365 0.0778768 -0.205641 -0.200455 -0.192196 -0.149572 -0.0562366 0.0168762 0.0394028 -0.132036 -0.140703 -0.13534 -0.119132 -0.0587153 0.00836618 0.0301125 -0.114728 -0.118044 -0.110459 -0.0960161 -0.043224 0.0207105 0.0475912 -0.111946 -0.111336 -0.104844 -0.0937073 -0.0430564 0.0198182 0.0446924 -0.110153 -0.109346 -0.103653 -0.0916146 -0.0401308 0.02092 0.0467657
        </DataArray>
      </PointData>
      <Points>
        <DataArray type="Float32" Name="network6" NumberOfComponents="3" format="ascii">
80.0 22.0 3.85
81.5 21.975 3.85
84.5 21.925 3.85
86.0 21.9 3.85
140.0 17.175 13.15
248.0 7.725 31.75
302.0 3.0 41.05
80.0 22.0 29.425
81.5 21.975 29.425
84.5 21.925 29.425
86.0 21.9 29.425
140.0 17.175 34.075
248.0 7.725 43.375
302.0 3.0 48.025
80.0 22.0 55.0
81.5 21.975 55.0
84.5 21.925 55.0
86.0 21.9 55.0
140.0 17.175 55.0
248.0 7.725 55.0
302.0 3.0 55.0
80.0 18.7782 55.0
81.5 18.7568 55.0
84.5 18.7142 55.0
86.0 18.6928 55.0
140.0 14.6598 55.0
248.0 6.5937 55.0
302.0 2.5607 55.0
80.0 11.0 55.0
81.5 10.9875 55.0
84.5 10.9625 55.0
86.0 10.95 55.0
140.0 8.5875 55.0
248.0 3.8625 55.0
302.0 1.5 55.0
80.0 3.2218 55.0
81.5 3.2182 55.0
84.5 3.2108 55.0
86.0 3.2072 55.0
140.0 2.5152 55.0
248.0 1.1313 55.0
302.0 0.4393 55.0
80.0 0.0 55.0
81.5 0.0 55.0
84.5 0.0 55.0
86.0 0.0 55.0
140.0 0.0 55.0
248.0 0.0 55.0
302.0 0.0 55.0
        </DataArray>
      </Points>
      <Cells>
        <DataArray type="Int32" Name="connectivity" format="ascii">
0 7 8 1
1 8 9 2
2 9 10 3
3 10 11 4
4 11 12 5
5 12 13 6
7 14 15 8
8 15 16 9
9 16 17 10
10 17 18 11
11 18 19 12
12 19 20 13
14 21 22 15
15 22 23 16
16 23 24 17
17 24 25 18
18 25 26 19
19 26 27 20
21 28 29 22
22 29 30 23
23 30 31 24
24 31 32 25
25 32 33 26
26 33 34 27
28 35 36 29
29 36 37 30
30 37 38 31
31 38 39 32
32 39 40 33
33 40 41 34
35 42 43 36
36 43 44 37
37 44 45 38
38 45 46 39
39 46 47 40
40 47 48 41
        </DataArray>
        <DataArray type="Int32" Name="offsets" format="ascii">
4 8 12 16 20 24 28 32 36 40 44 48 52 56 60 64 68 72 76 80 84 88 92 96 100 104 108 112 116 120 124 128 132 136 140 144
        </DataArray>
        <DataArray type="Int32" Name="types" format="ascii">
9 9 9 9 9 9 9 9 9 9 9 9 9 9 9 9 9 9 9 9 9 9 9 9 9 9 9 9 9 9 9 9 9 9 9 9
        </DataArray>
      </Cells>
    </Piece>
  </UnstructuredGrid>
</VTKFile>
