<?xml version="1.0"?>
<VTKFile type="UnstructuredGrid" version="1.0" byte_order="LittleEndian">
  <UnstructuredGrid>
    <Piece NumberOfPoints="14" NumberOfCells="6">
      <PointData Scalars="scalars">
        <DataArray type="Float32" Name="cp1" format="ascii">
0.0 0.0 0.0 0.0 0.0 0.0 0.0 0.0 0.0 0.0 0.0 0.0 0.0 0.0
        </DataArray>
        <DataArray type="Float32" Name="cp2" format="ascii">
0.0 0.0 0.0 0.0 0.0 0.0 0.0 0.0 0.0 0.0 0.0 0.0 0.0 0.0
        </DataArray>
        <DataArray type="Float32" Name="cp3" format="ascii">
0.0 0.0 0.0 0.0 0.0 0.0 0.0 0.0 0.0 0.0 0.0 0.0 0.0 0.0
        </DataArray>
      </PointData>
      <Points>
        <DataArray type="Float32" Name="network13" NumberOfComponents="3" format="ascii">
80.0 22.0 3.85
2000.0 22.0 3.85
81.5 21.975 3.85
2000.0 21.975 3.85
84.5 21.925 3.85
2000.0 21.925 3.85
86.0 21.9 3.85
2000.0 21.9 3.85
140.0 17.175 13.15
2000.0 17.175 13.15
248.0 7.725 31.75
2000.0 7.725 31.75
302.0 3.0 41.05
2000.0 3.0 41.05
        </DataArray>
      </Points>
      <Cells>
        <DataArray type="Int32" Name="connectivity" format="ascii">
0 2 3 1
2 4 5 3
4 6 7 5
6 8 9 7
8 10 11 9
10 12 13 11
        </DataArray>
        <DataArray type="Int32" Name="offsets" format="ascii">
4 8 12 16 20 24
        </DataArray>
        <DataArray type="Int32" Name="types" format="ascii">
9 9 9 9 9 9
        </DataArray>
      </Cells>
    </Piece>
  </UnstructuredGrid>
</VTKFile>
