<?xml version="1.0"?>
<VTKFile type="UnstructuredGrid" version="1.0" byte_order="LittleEndian">
  <UnstructuredGrid>
    <Piece NumberOfPoints="18" NumberOfCells="8">
      <PointData Scalars="scalars">
        <DataArray type="Float32" Name="cp1" format="ascii">
0.0 0.0 0.0 0.0 0.0 0.0 0.0 0.0 0.0 0.0 0.0 0.0 0.0 0.0 0.0 0.0 0.0 0.0
        </DataArray>
        <DataArray type="Float32" Name="cp2" format="ascii">
0.0 0.0 0.0 0.0 0.0 0.0 0.0 0.0 0.0 0.0 0.0 0.0 0.0 0.0 0.0 0.0 0.0 0.0
        </DataArray>
        <DataArray type="Float32" Name="cp3" format="ascii">
0.0 0.0 0.0 0.0 0.0 0.0 0.0 0.0 0.0 0.0 0.0 0.0 0.0 0.0 0.0 0.0 0.0 0.0
        </DataArray>
      </PointData>
      <Points>
        <DataArray type="Float32" Name="network12" NumberOfComponents="3" format="ascii">
302.0 0.0 40.0
2000.0 0.0 40.0
302.0 0.4393 40.0
2000.0 0.4393 40.0
302.0 1.5 40.0
2000.0 1.5 40.0
302.0 2.5607 40.0
2000.0 2.5607 40.0
302.0 3.0 40.0
2000.0 3.0 40.0
302.0 3.0 40.1538
2000.0 3.0 40.1538
302.0 3.0 40.525
2000.0 3.0 40.525
302.0 3.0 40.8962
2000.0 3.0 40.8962
302.0 3.0 41.05
2000.0 3.0 41.05
        </DataArray>
      </Points>
      <Cells>
        <DataArray type="Int32" Name="connectivity" format="ascii">
0 2 3 1
2 4 5 3
4 6 7 5
6 8 9 7
8 10 11 9
10 12 13 11
12 14 15 13
14 16 17 15
        </DataArray>
        <DataArray type="Int32" Name="offsets" format="ascii">
4 8 12 16 20 24 28 32
        </DataArray>
        <DataArray type="Int32" Name="types" format="ascii">
9 9 9 9 9 9 9 9
        </DataArray>
      </Cells>
    </Piece>
  </UnstructuredGrid>
</VTKFile>
