# vtk DataFile Version 2.0
scalar
ASCII
DATASET UNSTRUCTURED_GRID
POINTS 2541 float
7.098 0.5 0.0
7.0116 0.5 0.0067
6.9251 0.5 0.0129
6.8386 0.5 0.0187
6.7521 0.5 0.024
6.6655 0.5 0.0289
6.5789 0.5 0.0332
6.4923 0.5 0.0372
6.4057 0.5 0.0406
6.3191 0.5 0.0436
6.2324 0.5 0.0462
6.1457 0.5 0.0483
6.0591 0.5 0.0499
5.9724 0.5 0.051
5.8857 0.5 0.0517
5.799 0.5 0.052
5.7123 0.5 0.0517
5.6256 0.5 0.051
5.5389 0.5 0.0499
5.4523 0.5 0.0483
5.3656 0.5 0.0462
5.2789 0.5 0.0436
5.1923 0.5 0.0406
5.1057 0.5 0.0372
5.0191 0.5 0.0332
4.9325 0.5 0.0289
4.8459 0.5 0.024
4.7594 0.5 0.0187
4.6729 0.5 0.0129
4.5864 0.5 0.0067
4.5 0.5 0.0
4.5864 0.5 -0.0067
4.6729 0.5 -0.0129
4.7594 0.5 -0.0187
4.8459 0.5 -0.024
4.9325 0.5 -0.0289
5.0191 0.5 -0.0332
5.1057 0.5 -0.0372
5.1923 0.5 -0.0406
5.2789 0.5 -0.0436
5.3656 0.5 -0.0462
5.4523 0.5 -0.0483
5.5389 0.5 -0.0499
5.6256 0.5 -0.051
5.7123 0.5 -0.0517
5.799 0.5 -0.052
5.8857 0.5 -0.0517
5.9724 0.5 -0.051
6.0591 0.5 -0.0499
6.1457 0.5 -0.0483
6.2324 0.5 -0.0462
6.3191 0.5 -0.0436
6.4057 0.5 -0.0406
6.4923 0.5 -0.0372
6.5789 0.5 -0.0332
6.6655 0.5 -0.0289
6.7521 0.5 -0.024
6.8386 0.5 -0.0187
6.9251 0.5 -0.0129
7.0116 0.5 -0.0067
7.098 0.5 0.0
7.098 0.5517 0.0
7.0145 0.5517 0.0065
6.9311 0.5517 0.0125
6.8475 0.5517 0.0181
6.764 0.5517 0.0232
6.6804 0.5517 0.0279
6.5968 0.5517 0.0321
6.5132 0.5517 0.0359
6.4296 0.5517 0.0392
6.3459 0.5517 0.0421
6.2623 0.5517 0.0446
6.1786 0.5517 0.0466
6.0949 0.5517 0.0482
6.0112 0.5517 0.0493
5.9275 0.5517 0.0499
5.8438 0.5517 0.0502
5.7601 0.5517 0.0499
5.6764 0.5517 0.0493
5.5927 0.5517 0.0482
5.509 0.5517 0.0466
5.4253 0.5517 0.0446
5.3417 0.5517 0.0421
5.258 0.5517 0.0392
5.1744 0.5517 0.0359
5.0908 0.5517 0.0321
5.0072 0.5517 0.0279
4.9236 0.5517 0.0232
4.84 0.5517 0.0181
4.7565 0.5517 0.0125
4.673 0.5517 0.0065
4.5896 0.5517 0.0
4.673 0.5517 -0.0065
4.7565 0.5517 -0.0125
4.84 0.5517 -0.0181
4.9236 0.5517 -0.0232
5.0072 0.5517 -0.0279
5.0908 0.5517 -0.0321
5.1744 0.5517 -0.0359
5.258 0.5517 -0.0392
5.3417 0.5517 -0.0421
5.4253 0.5517 -0.0446
5.509 0.5517 -0.0466
5.5927 0.5517 -0.0482
5.6764 0.5517 -0.0493
5.7601 0.5517 -0.0499
5.8438 0.5517 -0.0502
5.9275 0.5517 -0.0499
6.0112 0.5517 -0.0493
6.0949 0.5517 -0.0482
6.1786 0.5517 -0.0466
6.2623 0.5517 -0.0446
6.3459 0.5517 -0.0421
6.4296 0.5517 -0.0392
6.5132 0.5517 -0.0359
6.5968 0.5517 -0.0321
6.6804 0.5517 -0.0279
6.764 0.5517 -0.0232
6.8475 0.5517 -0.0181
6.9311 0.5517 -0.0125
7.0145 0.5517 -0.0065
7.098 0.5517 0.0
7.098 0.6034 0.0
7.0175 0.6034 0.0062
6.937 0.6034 0.012
6.8565 0.6034 0.0174
6.7759 0.6034 0.0224
6.6953 0.6034 0.0269
6.6147 0.6034 0.031
6.5341 0.6034 0.0346
6.4535 0.6034 0.0378
6.3728 0.6034 0.0406
6.2921 0.6034 0.043
6.2114 0.6034 0.0449
6.1307 0.6034 0.0464
6.05 0.6034 0.0475
5.9693 0.6034 0.0482
5.8886 0.6034 0.0484
5.8079 0.6034 0.0482
5.7272 0.6034 0.0475
5.6465 0.6034 0.0464
5.5658 0.6034 0.0449
5.4851 0.6034 0.043
5.4044 0.6034 0.0406
5.3237 0.6034 0.0378
5.2431 0.6034 0.0346
5.1624 0.6034 0.031
5.0818 0.6034 0.0269
5.0012 0.6034 0.0224
4.9207 0.6034 0.0174
4.8401 0.6034 0.012
4.7596 0.6034 0.0062
4.6792 0.6034 0.0
4.7596 0.6034 -0.0062
4.8401 0.6034 -0.012
4.9207 0.6034 -0.0174
5.0012 0.6034 -0.0224
5.0818 0.6034 -0.0269
5.1624 0.6034 -0.031
5.2431 0.6034 -0.0346
5.3237 0.6034 -0.0378
5.4044 0.6034 -0.0406
5.4851 0.6034 -0.043
5.5658 0.6034 -0.0449
5.6465 0.6034 -0.0464
5.7272 0.6034 -0.0475
5.8079 0.6034 -0.0482
5.8886 0.6034 -0.0484
5.9693 0.6034 -0.0482
6.05 0.6034 -0.0475
6.1307 0.6034 -0.0464
6.2114 0.6034 -0.0449
6.2921 0.6034 -0.043
6.3728 0.6034 -0.0406
6.4535 0.6034 -0.0378
6.5341 0.6034 -0.0346
6.6147 0.6034 -0.031
6.6953 0.6034 -0.0269
6.7759 0.6034 -0.0224
6.8565 0.6034 -0.0174
6.937 0.6034 -0.012
7.0175 0.6034 -0.0062
7.098 0.6034 0.0
7.098 0.6552 0.0
7.0205 0.6552 0.006
6.943 0.6552 0.0116
6.8654 0.6552 0.0168
6.7879 0.6552 0.0215
6.7103 0.6552 0.0259
6.6326 0.6552 0.0298
6.555 0.6552 0.0333
6.4773 0.6552 0.0364
6.3996 0.6552 0.0391
6.322 0.6552 0.0414
6.2443 0.6552 0.0433
6.1665 0.6552 0.0447
6.0888 0.6552 0.0458
6.0111 0.6552 0.0464
5.9334 0.6552 0.0466
5.8557 0.6552 0.0464
5.7779 0.6552 0.0458
5.7002 0.6552 0.0447
5.6225 0.6552 0.0433
5.5448 0.6552 0.0414
5.4671 0.6552 0.0391
5.3894 0.6552 0.0364
5.3118 0.6552 0.0333
5.2341 0.6552 0.0298
5.1565 0.6552 0.0259
5.0789 0.6552 0.0215
5.0013 0.6552 0.0168
4.9238 0.6552 0.0116
4.8463 0.6552 0.006
4.7688 0.6552 0.0
4.8463 0.6552 -0.006
4.9238 0.6552 -0.0116
5.0013 0.6552 -0.0168
5.0789 0.6552 -0.0215
5.1565 0.6552 -0.0259
5.2341 0.6552 -0.0298
5.3118 0.6552 -0.0333
5.3894 0.6552 -0.0364
5.4671 0.6552 -0.0391
5.5448 0.6552 -0.0414
5.6225 0.6552 -0.0433
5.7002 0.6552 -0.0447
5.7779 0.6552 -0.0458
5.8557 0.6552 -0.0464
5.9334 0.6552 -0.0466
6.0111 0.6552 -0.0464
6.0888 0.6552 -0.0458
6.1665 0.6552 -0.0447
6.2443 0.6552 -0.0433
6.322 0.6552 -0.0414
6.3996 0.6552 -0.0391
6.4773 0.6552 -0.0364
6.555 0.6552 -0.0333
6.6326 0.6552 -0.0298
6.7103 0.6552 -0.0259
6.7879 0.6552 -0.0215
6.8654 0.6552 -0.0168
6.943 0.6552 -0.0116
7.0205 0.6552 -0.006
7.098 0.6552 0.0
7.098 0.7069 0.0
7.0235 0.7069 0.0058
6.9489 0.7069 0.0111
6.8744 0.7069 0.0161
6.7998 0.7069 0.0207
6.7252 0.7069 0.0249
6.6505 0.7069 0.0287
6.5759 0.7069 0.032
6.5012 0.7069 0.035
6.4265 0.7069 0.0376
6.3518 0.7069 0.0398
6.2771 0.7069 0.0416
6.2024 0.7069 0.043
6.1276 0.7069 0.044
6.0529 0.7069 0.0446
5.9782 0.7069 0.0448
5.9034 0.7069 0.0446
5.8287 0.7069 0.044
5.754 0.7069 0.043
5.6793 0.7069 0.0416
5.6045 0.7069 0.0398
5.5298 0.7069 0.0376
5.4552 0.7069 0.035
5.3805 0.7069 0.032
5.3058 0.7069 0.0287
5.2312 0.7069 0.0249
5.1566 0.7069 0.0207
5.082 0.7069 0.0161
5.0074 0.7069 0.0111
4.9329 0.7069 0.0058
4.8583 0.7069 0.0
4.9329 0.7069 -0.0058
5.0074 0.7069 -0.0111
5.082 0.7069 -0.0161
5.1566 0.7069 -0.0207
5.2312 0.7069 -0.0249
5.3058 0.7069 -0.0287
5.3805 0.7069 -0.032
5.4552 0.7069 -0.035
5.5298 0.7069 -0.0376
5.6045 0.7069 -0.0398
5.6793 0.7069 -0.0416
5.754 0.7069 -0.043
5.8287 0.7069 -0.044
5.9034 0.7069 -0.0446
5.9782 0.7069 -0.0448
6.0529 0.7069 -0.0446
6.1276 0.7069 -0.044
6.2024 0.7069 -0.043
6.2771 0.7069 -0.0416
6.3518 0.7069 -0.0398
6.4265 0.7069 -0.0376
6.5012 0.7069 -0.035
6.5759 0.7069 -0.032
6.6505 0.7069 -0.0287
6.7252 0.7069 -0.0249
6.7998 0.7069 -0.0207
6.8744 0.7069 -0.0161
6.9489 0.7069 -0.0111
7.0235 0.7069 -0.0058
7.098 0.7069 0.0
7.098 0.7586 0.0
7.0265 0.7586 0.0055
6.9549 0.7586 0.0107
6.8833 0.7586 0.0155
6.8117 0.7586 0.0199
6.7401 0.7586 0.0239
6.6684 0.7586 0.0275
6.5968 0.7586 0.0308
6.5251 0.7586 0.0336
6.4534 0.7586 0.0361
6.3816 0.7586 0.0382
6.3099 0.7586 0.0399
6.2382 0.7586 0.0413
6.1665 0.7586 0.0422
6.0947 0.7586 0.0428
6.023 0.7586 0.043
5.9512 0.7586 0.0428
5.8795 0.7586 0.0422
5.8077 0.7586 0.0413
5.736 0.7586 0.0399
5.6643 0.7586 0.0382
5.5926 0.7586 0.0361
5.5209 0.7586 0.0336
5.4492 0.7586 0.0308
5.3775 0.7586 0.0275
5.3059 0.7586 0.0239
5.2342 0.7586 0.0199
5.1626 0.7586 0.0155
5.091 0.7586 0.0107
5.0195 0.7586 0.0055
4.9479 0.7586 0.0
5.0195 0.7586 -0.0055
5.091 0.7586 -0.0107
5.1626 0.7586 -0.0155
5.2342 0.7586 -0.0199
5.3059 0.7586 -0.0239
5.3775 0.7586 -0.0275
5.4492 0.7586 -0.0308
5.5209 0.7586 -0.0336
5.5926 0.7586 -0.0361
5.6643 0.7586 -0.0382
5.736 0.7586 -0.0399
5.8077 0.7586 -0.0413
5.8795 0.7586 -0.0422
5.9512 0.7586 -0.0428
6.023 0.7586 -0.043
6.0947 0.7586 -0.0428
6.1665 0.7586 -0.0422
6.2382 0.7586 -0.0413
6.3099 0.7586 -0.0399
6.3816 0.7586 -0.0382
6.4534 0.7586 -0.0361
6.5251 0.7586 -0.0336
6.5968 0.7586 -0.0308
6.6684 0.7586 -0.0275
6.7401 0.7586 -0.0239
6.8117 0.7586 -0.0199
6.8833 0.7586 -0.0155
6.9549 0.7586 -0.0107
7.0265 0.7586 -0.0055
7.098 0.7586 0.0
7.098 0.8103 0.0
7.0294 0.8103 0.0053
6.9609 0.8103 0.0103
6.8923 0.8103 0.0148
6.8236 0.8103 0.019
6.755 0.8103 0.0229
6.6863 0.8103 0.0264
6.6176 0.8103 0.0295
6.5489 0.8103 0.0322
6.4802 0.8103 0.0346
6.4115 0.8103 0.0366
6.3428 0.8103 0.0383
6.274 0.8103 0.0396
6.2053 0.8103 0.0405
6.1365 0.8103 0.041
6.0678 0.8103 0.0412
5.999 0.8103 0.041
5.9302 0.8103 0.0405
5.8615 0.8103 0.0396
5.7928 0.8103 0.0383
5.724 0.8103 0.0366
5.6553 0.8103 0.0346
5.5866 0.8103 0.0322
5.5179 0.8103 0.0295
5.4492 0.8103 0.0264
5.3805 0.8103 0.0229
5.3119 0.8103 0.019
5.2432 0.8103 0.0148
5.1746 0.8103 0.0103
5.1061 0.8103 0.0053
5.0375 0.8103 0.0
5.1061 0.8103 -0.0053
5.1746 0.8103 -0.0103
5.2432 0.8103 -0.0148
5.3119 0.8103 -0.019
5.3805 0.8103 -0.0229
5.4492 0.8103 -0.0264
5.5179 0.8103 -0.0295
5.5866 0.8103 -0.0322
5.6553 0.8103 -0.0346
5.724 0.8103 -0.0366
5.7928 0.8103 -0.0383
5.8615 0.8103 -0.0396
5.9302 0.8103 -0.0405
5.999 0.8103 -0.041
6.0678 0.8103 -0.0412
6.1365 0.8103 -0.041
6.2053 0.8103 -0.0405
6.274 0.8103 -0.0396
6.3428 0.8103 -0.0383
6.4115 0.8103 -0.0366
6.4802 0.8103 -0.0346
6.5489 0.8103 -0.0322
6.6176 0.8103 -0.0295
6.6863 0.8103 -0.0264
6.755 0.8103 -0.0229
6.8236 0.8103 -0.019
6.8923 0.8103 -0.0148
6.9609 0.8103 -0.0103
7.0294 0.8103 -0.0053
7.098 0.8103 0.0
7.098 0.8621 0.0
7.0324 0.8621 0.0051
6.9668 0.8621 0.0098
6.9012 0.8621 0.0142
6.8356 0.8621 0.0182
6.7699 0.8621 0.0219
6.7042 0.8621 0.0252
6.6385 0.8621 0.0282
6.5728 0.8621 0.0308
6.5071 0.8621 0.0331
6.4413 0.8621 0.035
6.3756 0.8621 0.0366
6.3098 0.8621 0.0378
6.2441 0.8621 0.0387
6.1783 0.8621 0.0392
6.1126 0.8621 0.0394
6.0468 0.8621 0.0392
5.981 0.8621 0.0387
5.9153 0.8621 0.0378
5.8495 0.8621 0.0366
5.7838 0.8621 0.035
5.718 0.8621 0.0331
5.6523 0.8621 0.0308
5.5866 0.8621 0.0282
5.5209 0.8621 0.0252
5.4552 0.8621 0.0219
5.3895 0.8621 0.0182
5.3239 0.8621 0.0142
5.2583 0.8621 0.0098
5.1927 0.8621 0.0051
5.1271 0.8621 0.0
[...]
POINT_DATA 2541
SCALARS cp1 float
LOOKUP_TABLE default
-0.182837
-0.172265
-0.164261
-0.158478
-0.1522
-0.145166
-0.143295
-0.135218
-0.124086
-0.120463
-0.115895
-0.113671
-0.113571
-0.113219
-0.10441
-0.10175
-0.100558
-0.0951965
-0.101035
-0.101217
-0.093474
-0.0902996
-0.0891098
-0.0885761
-0.0937054
-0.0968053
-0.0957318
-0.0966588
-0.0849597
-0.198347
0.0734281
0.358673
0.221575
0.195917
0.176698
0.159195
0.151572
0.143205
0.129696
0.120946
0.105586
0.086161
0.0802376
0.0797309
0.0692912
0.0596791
0.0486363
0.0359734
0.0331533
0.0322492
0.0331862
0.0331615
0.0289976
0.01581
0.00776633
0.00690122
-0.000992833
-0.00823185
-0.0158713
-0.0274688
-0.0409578
-0.17898
-0.172621
-0.166831
-0.161161
-0.154975
-0.149265
-0.14557
-0.13693
-0.128398
-0.125334
-0.121179
-0.118992
-0.117722
-0.115692
-0.108968
-0.105934
-0.104633
-0.101055
-0.104063
-0.103797
-0.0978476
-0.0943162
-0.0933936
-0.093383
-0.0969626
-0.100344
-0.101035
-0.102808
-0.105756
-0.156994
0.038157
0.27332
0.224326
0.193033
0.173295
0.156434
0.146624
0.13687
0.124804
0.11442
0.10006
0.0845951
0.0775488
0.0739383
0.0646711
0.0552859
0.0446991
0.0350087
0.0314427
0.0296726
0.0298584
0.0286783
0.02544
0.0160801
0.00750161
0.00365668
-0.00273546
-0.0101088
-0.0177008
-0.0273728
-0.0396158
-0.178953
-0.174401
-0.16962
-0.164067
-0.158271
-0.153474
-0.148796
-0.139066
-0.132109
-0.13045
-0.126261
-0.124319
-0.122386
-0.119761
-0.113352
-0.110132
-0.109061
-0.105469
-0.108355
-0.108418
-0.102385
-0.0982111
-0.0973475
-0.0973439
-0.10062
-0.10463
-0.106106
-0.107666
-0.110689
-0.209487
0.00610344
0.301193
0.224024
0.189538
0.170701
0.153742
0.143299
0.132328
0.120633
0.110194
0.0959668
0.0813471
0.074453
0.0702256
0.0604815
0.0513943
0.0411322
0.0326515
0.0290348
0.0266759
0.0265823
0.0246634
0.0231691
0.0160063
0.00630161
0.00069139
-0.00478752
-0.0120065
-0.0193742
-0.0267482
-0.0357721
-0.183497
-0.178314
-0.173158
-0.16739
-0.162767
-0.158608
-0.151405
-0.142072
-0.137608
-0.135974
-0.131709
-0.13011
-0.127623
-0.124099
-0.118654
-0.115513
-0.11381
-0.110234
-0.113036
-0.113484
-0.107787
-0.103258
-0.102039
-0.102005
-0.104489
-0.108703
-0.111973
-0.114307
-0.115486
-0.241623
-0.0123591
0.320913
0.229226
0.192492
0.172358
0.154724
0.142248
0.13008
0.119247
0.10805
0.0937475
0.0797589
0.0723642
0.0670514
0.0572128
0.0487083
0.0388773
0.0310611
0.0267604
0.0237774
0.0228991
0.0204053
0.0199666
0.0153154
0.00560801
-0.00273203
-0.00793949
-0.0142062
-0.0219523
-0.0281285
-0.0340245
-0.188277
-0.182605
-0.176784
-0.171146
-0.167968
-0.1635
-0.153988
-0.146299
-0.143723
-0.14172
-0.137271
-0.135749
-0.133221
-0.128543
-0.123803
-0.121435
-0.119247
-0.115269
-0.117621
-0.118245
-0.113269
-0.108799
-0.107264
-0.107349
-0.108811
-0.112355
-0.117201
-0.120687
-0.121916
-0.270387
-0.0315198
0.33754
0.237326
0.197205
0.17392
0.15593
0.142718
0.130133
0.119181
0.10684
0.0922823
0.0785147
0.0702264
0.0644736
0.0553732
0.0470554
0.0371831
0.0296035
0.0242782
0.0207375
0.0193704
0.0169589
0.0166278
0.0132586
0.00492356
-0.00545265
-0.0116892
-0.0165098
-0.0239713
-0.030916
-0.0367518
-0.192092
-0.187045
-0.181054
-0.175815
-0.172949
-0.167341
-0.157433
-0.152016
-0.149768
-0.147385
-0.143363
-0.141505
-0.138737
-0.133017
-0.129114
-0.127291
-0.124807
-0.121346
-0.122859
-0.122663
-0.118523
-0.114472
-0.112914
-0.113195
-0.114106
-0.117072
-0.12229
-0.126108
-0.127408
-0.295869
-0.0463547
0.354551
0.245155
0.199486
0.175877
0.158922
0.145121
0.131403
0.119337
0.106083
0.0909328
0.0774556
0.0688796
0.063057
0.0546161
0.0457336
0.0356605
0.0282006
0.0215558
0.0177862
0.0163492
0.0142504
0.0132056
0.0100036
0.00358951
-0.00729707
-0.014861
-0.0192588
-0.0258474
-0.0336405
-0.0403155
-0.196308
-0.191828
-0.186069
-0.181595
-0.17723
-0.170201
-0.16209
-0.15866
-0.15585
-0.152681
-0.149715
-0.147983
-0.14437
-0.137476
-0.134414
-0.133222
-0.130374
-0.127558
-0.128834
-0.128023
-0.124087
-0.11973
-0.118243
-0.119213
-0.120113
-0.122455
-0.127636
-0.133585
-0.135703
-0.323756
-0.0755859
0.363153
0.249496
0.202503
0.181066
0.163931
0.147582
0.132456
0.119366
0.105174
0.0900928
0.0774671
0.0687148
0.0623637
0.0540788
0.0446322
0.0341201
0.0264664
0.0192029
0.0153751
0.0137683
0.0117942
0.0096075
0.0061723
0.001054
-0.00837327
-0.016637
-0.0225095
-0.0285262
-0.0365494
-0.0440618
-0.20181
-0.196826
-0.191294
-0.187845
-0.181426
-0.173242
-0.167503
-0.165321
-0.162335
-0.158463
-0.15583
-0.154243
-0.150346
-0.14281
-0.139598
-0.139096
-0.136654
-0.133576
-0.134445
-0.133859
-0.130671
-0.125955
-0.123545
-0.124558
-0.126037
-0.128354
-0.133396
-0.142074
-0.145305
-0.348165
-0.0904487
0.375419
0.256208
0.209073
0.187857
0.16822
0.149205
0.132892
0.119572
0.105235
0.090677
0.0784458
0.0691713
0.0619891
0.0529233
0.0433685
0.0326957
0.0248764
0.0178726
0.0137431
0.0114937
0.00896262
0.0057152
0.002163
-0.00212157
-0.00915009
-0.0178466
-0.0258346
-0.0315456
-0.0390855
-0.045535
-0.20521
-0.201532
-0.196916
-0.193393
-0.185392
-0.178043
-0.173695
-0.171349
-0.168781
-0.165193
-0.162135
-0.159647
-0.156221
-0.149331
-0.145486
-0.145024
-0.143193
-0.13947
-0.139842
-0.139734
-0.13754
-0.133288
-0.130072
-0.130393
-0.131795
-0.13438
-0.139503
-0.148901
-0.153754
-0.372044
-0.0999738
0.390737
0.264034
0.216352
0.192908
0.169883
0.150403
0.13482
0.121658
0.106726
0.0915584
0.0789473
0.0697269
0.0614457
0.0510386
0.0426778
0.0323275
0.0236385
0.0169363
0.0126759
0.00917744
0.00546813
0.00177642
-0.0013783
-0.00531893
-0.0107865
-0.0188637
-0.0283881
-0.0345315
-0.0415442
-0.0465448
-0.210223
-0.207297
-0.202687
-0.197681
-0.189112
-0.184347
-0.181157
-0.177406
-0.174717
-0.172237
-0.169293
-0.165349
-0.16188
-0.155704
-0.151834
-0.151988
-0.150086
-0.145144
-0.145089
-0.146104
-0.144811
-0.140462
-0.136878
-0.13733
-0.138915
-0.141732
-0.146326
-0.153908
-0.159668
-0.399288
-0.119239
0.402725
0.270638
0.221041
0.196217
0.172695
0.154013
0.138655
0.124127
0.107889
0.0918626
0.078996
0.0699204
0.0608699
0.0503101
0.0431391
0.0326436
0.0225069
0.0160694
0.0117471
0.00636025
0.00158742
-0.00154805
-0.00421437
-0.0088945
-0.0135106
-0.0197462
-0.0298294
-0.037135
-0.0447975
-0.050929
-0.219003
-0.214322
-0.207747
-0.20129
-0.193831
-0.191216
-0.189271
-0.184272
-0.181088
-0.179111
-0.176379
-0.1715
-0.167771
-0.161891
-0.158149
-0.15934
-0.157189
-0.152096
-0.151352
-0.152308
-0.151682
-0.147443
-0.144209
-0.144791
-0.146379
-0.149843
-0.155693
-0.163536
-0.168893
-0.433157
-0.169642
0.401977
0.276062
0.227633
0.201482
0.178375
0.158737
0.141483
0.125729
0.108949
0.0916216
0.0790085
0.0707646
0.0615358
0.0511753
0.043535
0.0328173
0.0216902
0.0152302
0.0104822
0.00340173
-0.00174083
-0.00414169
-0.00690736
-0.0129857
-0.0168237
-0.021406
-0.0306097
-0.0386987
-0.0477296
-0.0546378
-0.22482
-0.219408
-0.211569
-0.205826
-0.200449
-0.198641
-0.19688
-0.191286
-0.188756
-0.186493
-0.183261
-0.1776
-0.173508
-0.168591
-0.165469
-0.166927
-0.16386
-0.159538
-0.158977
-0.159849
-0.1591
-0.153948
-0.151396
-0.152763
-0.154036
-0.157554
-0.165305
-0.175685
-0.179709
-0.458437
-0.187443
0.413977
0.287682
0.236961
0.207717
0.183348
0.16252
0.143371
0.126802
0.110034
0.0923048
0.0803694
0.0725659
0.0628294
0.0520535
0.0434049
0.0330835
0.0212973
0.0142579
0.00879395
0.00115334
-0.00382655
-0.00672524
-0.00977321
-0.016801
-0.0203814
-0.0243601
-0.0319916
-0.0396739
-0.0500013
-0.0585795
-0.22928
-0.223296
-0.21606
-0.212353
-0.208355
-0.206234
-0.203719
-0.198306
-0.197049
-0.19452
-0.190695
-0.184137
-0.179182
-0.175538
-0.173579
-0.175037
-0.171008
-0.166455
-0.166237
-0.168198
-0.168065
-0.162519
-0.159538
-0.160376
-0.161285
-0.165615
-0.175006
-0.185999
-0.189506
-0.48167
-0.189418
0.43507
0.298637
0.243148
0.212438
0.18691
0.164992
0.145217
0.129126
0.112334
0.0943083
0.0822919
0.0744013
0.0641382
0.0526511
0.0433704
0.0331644
0.0206918
0.0134192
0.00779945
0.000268853
-0.0054509
-0.00996957
-0.0129364
-0.0197769
-0.0236852
-0.0280314
-0.0348045
-0.0412764
-0.0509237
-0.0593434
-0.233717
-0.228722
-0.223044
-0.21992
-0.216526
-0.213758
-0.210418
-0.206115
-0.20556
-0.202674
-0.197602
-0.191295
-0.186747
-0.183496
-0.18162
-0.182545
-0.178926
-0.174209
-0.173644
-0.176041
-0.177054
-0.172832
-0.169084
-0.169637
-0.171136
-0.174757
-0.183703
-0.195246
-0.200399
-0.518055
-0.222361
0.445287
0.304626
0.246379
0.216168
0.191463
0.168944
0.149328
0.133253
0.114607
0.0959728
0.0842818
0.0766581
0.0656341
0.0527123
0.0433318
0.033187
0.0205657
0.0133022
0.00782883
0.000206996
-0.00763324
-0.0134186
-0.0160981
-0.0219391
-0.0266616
-0.0318166
-0.038336
-0.0443732
-0.0521288
-0.0589412
-0.239105
-0.235694
-0.231858
-0.228249
-0.224741
-0.221553
-0.217765
-0.214708
-0.213939
-0.210816
-0.204288
-0.199026
-0.195364
-0.192224
-0.191711
-0.191189
-0.186453
-0.181623
-0.181858
-0.184791
-0.186404
-0.183032
-0.17809
-0.179917
-0.183488
-0.186298
-0.195623
-0.20944
-0.215214
-0.562846
-0.289984
0.441373
0.30914
0.253499
0.223547
0.198346
0.174001
0.153692
0.136777
0.116191
0.0981724
0.0867537
0.0781177
0.0666483
0.0532626
0.0438642
0.0338344
0.02208
0.0134793
0.00717142
-0.000187394
-0.00947751
-0.0156502
-0.0187149
-0.0241467
-0.030214
-0.0356139
-0.0420592
-0.0482277
-0.0545295
-0.0616346
-0.246271
-0.243275
-0.241228
-0.237651
-0.233013
-0.230283
-0.226274
-0.22363
-0.222579
-0.218753
-0.211274
-0.207361
-0.20413
-0.201055
-0.202939
-0.201362
-0.195245
-0.19069
-0.191203
-0.192922
-0.194942
-0.19404
-0.188845
-0.19079
-0.195184
-0.198716
-0.210151
-0.225815
-0.229828
-0.598594
-0.31583
0.453835
0.321079
0.264449
0.231792
0.203832
0.177978
0.157821
0.140182
0.11787
0.100495
0.089168
0.0794349
0.068716
0.0559421
0.0452676
0.0349138
0.0240996
0.0129878
0.00595189
-0.00011282
-0.0099489
-0.0170946
-0.0212359
-0.0274509
-0.034275
-0.0385279
-0.0456213
-0.0518671
-0.0568484
-0.0640184
-0.257325
-0.252583
-0.250472
-0.247007
-0.241307
-0.239882
-0.236705
-0.233216
-0.231555
-0.225944
-0.218883
-0.216896
-0.213783
-0.210786
-0.21312
-0.211204
-0.20548
-0.201946
-0.202484
-0.20265
-0.204727
-0.20552
-0.200524
-0.202072
-0.20707
-0.212636
-0.225046
-0.239659
-0.244535
-0.636762
-0.333863
0.474503
0.332672
0.272003
0.237893
0.208966
0.18271
0.161278
0.141785
0.119255
0.104249
0.0937484
0.082694
0.0715524
0.0584626
0.0465925
0.0362713
0.0256992
0.0129815
0.0053198
0.000293219
-0.00963566
-0.0187385
-0.023931
-0.0315098
-0.0373187
-0.0402742
-0.0485048
-0.0549421
-0.0599238
-0.0667873
-0.267997
-0.262725
-0.259342
-0.25591
-0.250716
-0.250805
-0.248462
-0.243229
-0.240622
-0.233772
-0.228362
-0.22688
-0.223386
-0.222125
-0.223902
-0.221572
-0.216314
-0.212902
-0.213987
-0.214523
-0.217221
-0.219457
-0.215892
-0.216793
-0.219971
-0.225278
-0.238588
-0.2557
-0.263203
-0.692007
-0.391717
0.48244
0.342014
0.277491
0.242763
0.213878
0.187813
0.165938
0.145506
0.123192
0.109437
0.0987396
0.0863335
0.0739218
0.0599167
0.0483033
0.0385089
0.0276779
0.0148213
0.00508897
-0.000690517
-0.00977891
-0.0197031
-0.0250362
-0.0342693
-0.0397739
-0.0424389
-0.0510637
-0.0575204
-0.0638906
-0.0720563
-0.2745
-0.272093
-0.268808
-0.266087
-0.262544
-0.262492
-0.259018
-0.25367
-0.250332
-0.2435
-0.239677
-0.237322
-0.234821
-0.234847
-0.23479
-0.23285
-0.229454
-0.225558
-0.22558
-0.22644
-0.229601
-0.233974
-0.232814
-0.233688
-0.237254
-0.243703
-0.259111
-0.280169
-0.286224
-0.759512
-0.503997
0.471054
0.34832
0.286667
0.252303
0.221508
0.194576
0.172451
0.150469
0.127841
0.11394
0.102775
0.0906568
0.0767385
0.0617713
0.0510323
0.0414521
0.029535
0.0162428
0.00535841
-0.00164002
-0.00913291
-0.0189204
-0.0249731
-0.0344111
-0.042139
-0.0465005
-0.0540529
-0.060373
-0.0675291
-0.0747697
-0.288922
-0.283769
-0.279917
-0.279151
-0.277222
-0.27361
-0.268055
-0.26397
-0.259744
-0.255165
-0.253252
-0.250603
-0.249543
-0.249084
-0.246943
-0.244776
-0.242851
-0.239816
-0.239767
-0.2409
-0.242531
-0.247586
-0.249467
-0.250619
-0.257543
-0.267831
-0.283032
-0.305088
-0.308999
-0.818123
-0.553723
0.483461
0.362541
0.300573
0.26468
0.229147
0.20063
0.177592
0.153725
0.133907
0.121004
0.108378
0.0951487
0.0795228
0.0643223
0.0538912
0.0438689
0.0318461
0.0188331
0.00730136
-0.00151741
-0.00810112
-0.0169394
-0.0250738
-0.0329589
-0.0427942
-0.0516782
-0.0580002
-0.0631289
-0.0704833
-0.0769251
-0.299689
-0.297343
-0.294528
-0.293705
-0.291109
-0.284444
-0.278311
-0.27473
-0.270486
-0.268209
-0.268182
-0.266662
-0.265518
-0.265346
-0.262545
-0.259437
-0.257912
-0.255969
-0.25651
-0.256869
-0.255981
-0.261593
-0.269572
-0.272285
-0.2797
-0.292694
-0.306711
-0.328608
-0.334563
-0.883596
-0.595366
0.509069
0.379718
0.310629
0.271015
0.234932
0.207803
0.183573
0.158764
0.141929
0.128576
0.113451
0.0984045
0.0830175
0.0686007
0.0580977
0.0473117
0.0357514
0.0237391
0.00944568
-0.00136104
-0.00737959
-0.0150292
-0.0242874
-0.0318153
-0.0420122
-0.0537186
-0.0609238
-0.066865
-0.0744291
-0.0817723
-0.313125
-0.31327
-0.310251
-0.306663
-0.303134
-0.296702
-0.292358
-0.289481
-0.285057
-0.282234
-0.284367
-0.284592
-0.283084
-0.283403
-0.278408
-0.277082
-0.277911
-0.275207
-0.275911
-0.276193
-0.274649
-0.279389
-0.291679
-0.297851
-0.303185
-0.317266
-0.336803
-0.365043
-0.369754
-0.98347
-0.727945
0.506514
0.392901
0.317729
0.277662
0.243163
0.215688
0.188626
0.165277
0.151168
0.13721
0.121044
0.105038
0.0895762
0.0735415
0.0633573
0.0531093
0.0389244
0.027638
0.0125032
0.000995213
-0.00466278
-0.0132653
-0.0236723
-0.0320563
-0.0413647
-0.0524937
-0.0599543
-0.0690573
-0.0776693
-0.0835869
-0.3322
-0.328757
-0.324042
-0.320461
-0.317347
-0.312068
-0.31039
-0.307143
-0.301687
-0.301442
-0.304536
-0.303005
-0.304149
-0.3044
-0.295265
-0.297898
-0.300662
-0.295871
-0.296898
-0.29967
-0.300249
-0.302867
-0.316022
-0.328563
-0.337492
-0.353107
-0.375768
-0.409698
-0.411452
-1.11579
-0.948506
0.481137
0.404289
0.330243
0.291129
0.255914
0.225571
0.197694
0.177093
0.163624
0.147503
0.13
0.114103
0.0974323
0.0782238
0.0677188
0.0593533
0.0414972
0.0314319
0.0208914
0.00622446
-0.00230362
-0.0103946
-0.0227861
-0.0322526
-0.0397803
-0.0510926
-0.0585322
-0.0683987
-0.077508
-0.0829225
-0.351204
-0.344856
-0.339918
-0.338412
-0.337259
-0.331996
-0.329383
-0.326284
-0.324013
-0.328766
-0.328059
-0.324839
-0.329517
-0.327118
-0.31983
-0.325387
-0.325527
-0.320528
-0.32135
-0.32865
-0.332027
-0.330661
-0.343006
-0.35956
-0.376469
-0.398595
-0.422497
-0.457439
-0.452696
-1.25689
-1.10511
0.486293
0.429056
0.347786
0.306703
0.268844
0.237969
0.212487
0.19288
0.177552
0.156021
0.137593
0.12424
0.106363
0.0870463
0.0732371
0.0647034
0.0482578
0.0363593
0.0304852
0.0146603
0.000167908
-0.00647928
-0.0185981
-0.0288219
-0.0380842
-0.0506772
-0.0569437
-0.0661815
-0.0755688
-0.0830041
-0.373051
-0.367963
-0.362426
-0.360218
-0.361273
-0.356846
-0.353668
-0.354684
-0.35534
-0.359392
-0.356998
-0.357356
-0.356136
-0.348426
-0.355519
-0.359736
-0.352432
-0.352743
-0.355327
-0.367
-0.373766
-0.368825
-0.378983
-0.395598
-0.417841
-0.446798
-0.478496
-0.5244
-0.513411
-1.44464
-1.34665
0.486044
0.455239
0.363006
0.320896
0.283045
0.253509
0.23081
0.210924
0.192195
0.166055
0.148296
0.136238
0.117583
0.102007
0.0813858
0.0684177
0.0631271
0.0461639
0.0346185
0.0230889
0.00826154
-0.000262012
-0.0130185
-0.0220843
-0.0345901
-0.0474607
-0.0521462
-0.0626594
-0.0739525
-0.0852695
-0.394225
-0.396759
-0.39352
-0.393106
-0.394957
-0.39081
-0.387503
-0.391765
-0.394247
-0.399161
-0.399405
-0.394714
-0.381186
-0.382115
-0.405939
-0.400081
-0.386412
-0.39741
-0.405918
-0.415707
-0.423793
-0.422371
-0.430178
-0.44592
-0.475652
-0.514657
-0.556897
-0.616319
-0.589065
-1.73667
-1.79764
0.431559
0.489563
0.384072
0.342006
0.305536
0.277569
0.255618
0.232536
0.208846
0.182336
0.163862
0.147581
0.131009
0.122091
0.0959887
0.0728917
0.0782856
0.0668509
0.0431569
0.0271084
0.0160426
0.00942097
-0.00112504
-0.00819725
-0.0240628
-0.040184
-0.0480928
-0.0575796
-0.0672747
-0.08103
-0.433698
-0.439336
-0.43712
-0.440942
-0.441635
-0.43765
-0.438412
-0.443891
-0.444659
-0.44593
-0.439307
-0.431102
-0.433848
-0.454375
-0.468224
-0.451121
-0.441962
-0.457641
-0.471812
-0.482897
-0.492775
-0.496464
-0.509072
-0.527441
-0.556033
-0.606943
-0.669594
-0.736114
-0.671443
-2.15736
-2.54358
0.325054
0.54931
0.417094
0.373789
0.338366
0.310359
0.282654
0.255737
0.232036
0.207192
0.186948
0.168682
0.154854
0.145946
0.121069
0.0889541
0.0813236
0.0815424
0.070363
0.0498459
0.0310216
0.0208495
0.00967109
0.00419385
-0.00674934
-0.0240019
-0.0357567
-0.0420719
-0.0502599
-0.0670041
-0.442812
-0.492646
-0.476934
-0.484746
-0.48208
-0.474603
-0.479098
-0.48291
-0.482038
-0.490158
-0.485804
-0.480565
-0.502444
-0.517233
-0.508573
-0.505107
-0.505629
-0.501971
-0.518177
-0.554943
-0.564926
-0.559283
-0.585774
-0.613679
-0.628827
-0.681474
-0.759574
-0.821853
-0.598404
-2.67907
-2.95811
0.284106
0.79844
0.513889
0.451814
0.410256
0.375325
0.33824
0.310567
0.289706
0.260105
0.236369
0.229768
0.219192
0.192225
0.168696
0.148855
0.12178
0.113378
0.116315
0.0954696
0.0769232
0.0738897
0.0605801
0.0538151
0.0494911
0.027914
0.0141143
0.00890671
-0.00861962
0.00850954
-0.772497
-0.784794
-0.776221
-0.791659
-0.79056
-0.783823
-0.792662
-0.801544
-0.808859
-0.835124
-0.852418
-0.854274
-0.879186
-0.891284
-0.885764
-0.909517
-0.942018
-0.929391
-0.931304
-1.01294
-1.07029
-1.10106
-1.18468
-1.26668
-1.33814
-1.47521
-1.67242
-1.95692
-2.54886
-6.24844
-7.9511
-2.06101
0.10813
0.28283
0.331767
0.342388
0.335481
0.316975
0.302074
0.290283
0.266473
0.247181
0.249127
0.230892
0.18634
0.165392
0.157867
0.127135
0.106029
0.0979371
0.0710431
0.0603636
0.0604154
0.0410597
0.0258683
0.0120324
-0.0226525
-0.0423089
-0.0529969
-0.0740408
-0.0636687
-1.28675
-1.28134
-1.29864
-1.33113
-1.33002
-1.32717
-1.35388
-1.37829
-1.38967
-1.42963
-1.47269
-1.48027
-1.52362
-1.56288
-1.55999
-1.59545
-1.70962
-1.70401
-1.63322
-1.80058
-1.96043
-2.04532
-2.23876
-2.41043
-2.56964
-2.87171
-3.26341
-3.87422
-5.08171
-13.5582
-15.2346
-5.18809
-0.758968
-0.203452
0.0332154
0.141435
0.191435
0.208483
0.215888
0.222682
0.214804
0.207106
0.215733
0.174458
0.112768
0.106931
0.100206
0.0593127
0.040732
0.0250314
-0.0141604
-0.0253013
-0.0403683
-0.0812786
-0.105837
-0.127437
-0.184792
-0.210998
-0.232013
-0.253865
-0.241883
0.387051
0.329579
0.241986