# vtk DataFile Version 2.0
scalar
ASCII
DATASET UNSTRUCTURED_GRID
POINTS 2541 float
7.098 0.5 0.0
7.0116 0.5 0.0067
6.9251 0.5 0.0129
6.8386 0.5 0.0187
6.7521 0.5 0.024
6.6655 0.5 0.0289
6.5789 0.5 0.0332
6.4923 0.5 0.0372
6.4057 0.5 0.0406
6.3191 0.5 0.0436
6.2324 0.5 0.0462
6.1457 0.5 0.0483
6.0591 0.5 0.0499
5.9724 0.5 0.051
5.8857 0.5 0.0517
5.799 0.5 0.052
5.7123 0.5 0.0517
5.6256 0.5 0.051
5.5389 0.5 0.0499
5.4523 0.5 0.0483
5.3656 0.5 0.0462
5.2789 0.5 0.0436
5.1923 0.5 0.0406
5.1057 0.5 0.0372
5.0191 0.5 0.0332
4.9325 0.5 0.0289
4.8459 0.5 0.024
4.7594 0.5 0.0187
4.6729 0.5 0.0129
4.5864 0.5 0.0067
4.5 0.5 0.0
4.5864 0.5 -0.0067
4.6729 0.5 -0.0129
4.7594 0.5 -0.0187
4.8459 0.5 -0.024
4.9325 0.5 -0.0289
5.0191 0.5 -0.0332
5.1057 0.5 -0.0372
5.1923 0.5 -0.0406
5.2789 0.5 -0.0436
5.3656 0.5 -0.0462
5.4523 0.5 -0.0483
5.5389 0.5 -0.0499
5.6256 0.5 -0.051
5.7123 0.5 -0.0517
5.799 0.5 -0.052
5.8857 0.5 -0.0517
5.9724 0.5 -0.051
6.0591 0.5 -0.0499
6.1457 0.5 -0.0483
6.2324 0.5 -0.0462
6.3191 0.5 -0.0436
6.4057 0.5 -0.0406
6.4923 0.5 -0.0372
6.5789 0.5 -0.0332
6.6655 0.5 -0.0289
6.7521 0.5 -0.024
6.8386 0.5 -0.0187
6.9251 0.5 -0.0129
7.0116 0.5 -0.0067
7.098 0.5 0.0
7.098 0.5517 0.0
7.0145 0.5517 0.0065
6.9311 0.5517 0.0125
6.8475 0.5517 0.0181
6.764 0.5517 0.0232
6.6804 0.5517 0.0279
6.5968 0.5517 0.0321
6.5132 0.5517 0.0359
6.4296 0.5517 0.0392
6.3459 0.5517 0.0421
6.2623 0.5517 0.0446
6.1786 0.5517 0.0466
6.0949 0.5517 0.0482
6.0112 0.5517 0.0493
5.9275 0.5517 0.0499
5.8438 0.5517 0.0502
5.7601 0.5517 0.0499
5.6764 0.5517 0.0493
5.5927 0.5517 0.0482
5.509 0.5517 0.0466
5.4253 0.5517 0.0446
5.3417 0.5517 0.0421
5.258 0.5517 0.0392
5.1744 0.5517 0.0359
5.0908 0.5517 0.0321
5.0072 0.5517 0.0279
4.9236 0.5517 0.0232
4.84 0.5517 0.0181
4.7565 0.5517 0.0125
4.673 0.5517 0.0065
4.5896 0.5517 0.0
4.673 0.5517 -0.0065
4.7565 0.5517 -0.0125
4.84 0.5517 -0.0181
4.9236 0.5517 -0.0232
5.0072 0.5517 -0.0279
5.0908 0.5517 -0.0321
5.1744 0.5517 -0.0359
5.258 0.5517 -0.0392
5.3417 0.5517 -0.0421
5.4253 0.5517 -0.0446
5.509 0.5517 -0.0466
5.5927 0.5517 -0.0482
5.6764 0.5517 -0.0493
5.7601 0.5517 -0.0499
5.8438 0.5517 -0.0502
5.9275 0.5517 -0.0499
6.0112 0.5517 -0.0493
6.0949 0.5517 -0.0482
6.1786 0.5517 -0.0466
6.2623 0.5517 -0.0446
6.3459 0.5517 -0.0421
6.4296 0.5517 -0.0392
6.5132 0.5517 -0.0359
6.5968 0.5517 -0.0321
6.6804 0.5517 -0.0279
6.764 0.5517 -0.0232
6.8475 0.5517 -0.0181
6.9311 0.5517 -0.0125
7.0145 0.5517 -0.0065
7.098 0.5517 0.0
7.098 0.6034 0.0
7.0175 0.6034 0.0062
6.937 0.6034 0.012
6.8565 0.6034 0.0174
6.7759 0.6034 0.0224
6.6953 0.6034 0.0269
6.6147 0.6034 0.031
6.5341 0.6034 0.0346
6.4535 0.6034 0.0378
6.3728 0.6034 0.0406
6.2921 0.6034 0.043
6.2114 0.6034 0.0449
6.1307 0.6034 0.0464
6.05 0.6034 0.0475
5.9693 0.6034 0.0482
5.8886 0.6034 0.0484
5.8079 0.6034 0.0482
5.7272 0.6034 0.0475
5.6465 0.6034 0.0464
5.5658 0.6034 0.0449
5.4851 0.6034 0.043
5.4044 0.6034 0.0406
5.3237 0.6034 0.0378
5.2431 0.6034 0.0346
5.1624 0.6034 0.031
5.0818 0.6034 0.0269
5.0012 0.6034 0.0224
4.9207 0.6034 0.0174
4.8401 0.6034 0.012
4.7596 0.6034 0.0062
4.6792 0.6034 0.0
4.7596 0.6034 -0.0062
4.8401 0.6034 -0.012
4.9207 0.6034 -0.0174
5.0012 0.6034 -0.0224
5.0818 0.6034 -0.0269
5.1624 0.6034 -0.031
5.2431 0.6034 -0.0346
5.3237 0.6034 -0.0378
5.4044 0.6034 -0.0406
5.4851 0.6034 -0.043
5.5658 0.6034 -0.0449
5.6465 0.6034 -0.0464
5.7272 0.6034 -0.0475
5.8079 0.6034 -0.0482
5.8886 0.6034 -0.0484
5.9693 0.6034 -0.0482
6.05 0.6034 -0.0475
6.1307 0.6034 -0.0464
6.2114 0.6034 -0.0449
6.2921 0.6034 -0.043
6.3728 0.6034 -0.0406
6.4535 0.6034 -0.0378
6.5341 0.6034 -0.0346
6.6147 0.6034 -0.031
6.6953 0.6034 -0.0269
6.7759 0.6034 -0.0224
6.8565 0.6034 -0.0174
6.937 0.6034 -0.012
7.0175 0.6034 -0.0062
7.098 0.6034 0.0
7.098 0.6552 0.0
7.0205 0.6552 0.006
6.943 0.6552 0.0116
6.8654 0.6552 0.0168
6.7879 0.6552 0.0215
6.7103 0.6552 0.0259
6.6326 0.6552 0.0298
6.555 0.6552 0.0333
6.4773 0.6552 0.0364
6.3996 0.6552 0.0391
6.322 0.6552 0.0414
6.2443 0.6552 0.0433
6.1665 0.6552 0.0447
6.0888 0.6552 0.0458
6.0111 0.6552 0.0464
5.9334 0.6552 0.0466
5.8557 0.6552 0.0464
5.7779 0.6552 0.0458
5.7002 0.6552 0.0447
5.6225 0.6552 0.0433
5.5448 0.6552 0.0414
5.4671 0.6552 0.0391
5.3894 0.6552 0.0364
5.3118 0.6552 0.0333
5.2341 0.6552 0.0298
5.1565 0.6552 0.0259
5.0789 0.6552 0.0215
5.0013 0.6552 0.0168
4.9238 0.6552 0.0116
4.8463 0.6552 0.006
4.7688 0.6552 0.0
4.8463 0.6552 -0.006
4.9238 0.6552 -0.0116
5.0013 0.6552 -0.0168
5.0789 0.6552 -0.0215
5.1565 0.6552 -0.0259
5.2341 0.6552 -0.0298
5.3118 0.6552 -0.0333
5.3894 0.6552 -0.0364
5.4671 0.6552 -0.0391
5.5448 0.6552 -0.0414
5.6225 0.6552 -0.0433
5.7002 0.6552 -0.0447
5.7779 0.6552 -0.0458
5.8557 0.6552 -0.0464
5.9334 0.6552 -0.0466
6.0111 0.6552 -0.0464
6.0888 0.6552 -0.0458
6.1665 0.6552 -0.0447
6.2443 0.6552 -0.0433
6.322 0.6552 -0.0414
6.3996 0.6552 -0.0391
6.4773 0.6552 -0.0364
6.555 0.6552 -0.0333
6.6326 0.6552 -0.0298
6.7103 0.6552 -0.0259
6.7879 0.6552 -0.0215
6.8654 0.6552 -0.0168
6.943 0.6552 -0.0116
7.0205 0.6552 -0.006
7.098 0.6552 0.0
7.098 0.7069 0.0
7.0235 0.7069 0.0058
6.9489 0.7069 0.0111
6.8744 0.7069 0.0161
6.7998 0.7069 0.0207
6.7252 0.7069 0.0249
6.6505 0.7069 0.0287
6.5759 0.7069 0.032
6.5012 0.7069 0.035
6.4265 0.7069 0.0376
6.3518 0.7069 0.0398
6.2771 0.7069 0.0416
6.2024 0.7069 0.043
6.1276 0.7069 0.044
6.0529 0.7069 0.0446
5.9782 0.7069 0.0448
5.9034 0.7069 0.0446
5.8287 0.7069 0.044
5.754 0.7069 0.043
5.6793 0.7069 0.0416
5.6045 0.7069 0.0398
5.5298 0.7069 0.0376
5.4552 0.7069 0.035
5.3805 0.7069 0.032
5.3058 0.7069 0.0287
5.2312 0.7069 0.0249
5.1566 0.7069 0.0207
5.082 0.7069 0.0161
5.0074 0.7069 0.0111
4.9329 0.7069 0.0058
4.8583 0.7069 0.0
4.9329 0.7069 -0.0058
5.0074 0.7069 -0.0111
5.082 0.7069 -0.0161
5.1566 0.7069 -0.0207
5.2312 0.7069 -0.0249
5.3058 0.7069 -0.0287
5.3805 0.7069 -0.032
5.4552 0.7069 -0.035
5.5298 0.7069 -0.0376
5.6045 0.7069 -0.0398
5.6793 0.7069 -0.0416
5.754 0.7069 -0.043
5.8287 0.7069 -0.044
5.9034 0.7069 -0.0446
5.9782 0.7069 -0.0448
6.0529 0.7069 -0.0446
6.1276 0.7069 -0.044
6.2024 0.7069 -0.043
6.2771 0.7069 -0.0416
6.3518 0.7069 -0.0398
6.4265 0.7069 -0.0376
6.5012 0.7069 -0.035
6.5759 0.7069 -0.032
6.6505 0.7069 -0.0287
6.7252 0.7069 -0.0249
6.7998 0.7069 -0.0207
6.8744 0.7069 -0.0161
6.9489 0.7069 -0.0111
7.0235 0.7069 -0.0058
7.098 0.7069 0.0
7.098 0.7586 0.0
7.0265 0.7586 0.0055
6.9549 0.7586 0.0107
6.8833 0.7586 0.0155
6.8117 0.7586 0.0199
6.7401 0.7586 0.0239
6.6684 0.7586 0.0275
6.5968 0.7586 0.0308
6.5251 0.7586 0.0336
6.4534 0.7586 0.0361
6.3816 0.7586 0.0382
6.3099 0.7586 0.0399
6.2382 0.7586 0.0413
6.1665 0.7586 0.0422
6.0947 0.7586 0.0428
6.023 0.7586 0.043
5.9512 0.7586 0.0428
5.8795 0.7586 0.0422
5.8077 0.7586 0.0413
5.736 0.7586 0.0399
5.6643 0.7586 0.0382
5.5926 0.7586 0.0361
5.5209 0.7586 0.0336
5.4492 0.7586 0.0308
5.3775 0.7586 0.0275
5.3059 0.7586 0.0239
5.2342 0.7586 0.0199
5.1626 0.7586 0.0155
5.091 0.7586 0.0107
5.0195 0.7586 0.0055
4.9479 0.7586 0.0
5.0195 0.7586 -0.0055
5.091 0.7586 -0.0107
5.1626 0.7586 -0.0155
5.2342 0.7586 -0.0199
5.3059 0.7586 -0.0239
5.3775 0.7586 -0.0275
5.4492 0.7586 -0.0308
5.5209 0.7586 -0.0336
5.5926 0.7586 -0.0361
5.6643 0.7586 -0.0382
5.736 0.7586 -0.0399
5.8077 0.7586 -0.0413
5.8795 0.7586 -0.0422
5.9512 0.7586 -0.0428
6.023 0.7586 -0.043
6.0947 0.7586 -0.0428
6.1665 0.7586 -0.0422
6.2382 0.7586 -0.0413
6.3099 0.7586 -0.0399
6.3816 0.7586 -0.0382
6.4534 0.7586 -0.0361
6.5251 0.7586 -0.0336
6.5968 0.7586 -0.0308
6.6684 0.7586 -0.0275
6.7401 0.7586 -0.0239
6.8117 0.7586 -0.0199
6.8833 0.7586 -0.0155
6.9549 0.7586 -0.0107
7.0265 0.7586 -0.0055
7.098 0.7586 0.0
7.098 0.8103 0.0
7.0294 0.8103 0.0053
6.9609 0.8103 0.0103
6.8923 0.8103 0.0148
6.8236 0.8103 0.019
6.755 0.8103 0.0229
6.6863 0.8103 0.0264
6.6176 0.8103 0.0295
6.5489 0.8103 0.0322
6.4802 0.8103 0.0346
6.4115 0.8103 0.0366
6.3428 0.8103 0.0383
6.274 0.8103 0.0396
6.2053 0.8103 0.0405
6.1365 0.8103 0.041
6.0678 0.8103 0.0412
5.999 0.8103 0.041
5.9302 0.8103 0.0405
5.8615 0.8103 0.0396
5.7928 0.8103 0.0383
5.724 0.8103 0.0366
5.6553 0.8103 0.0346
5.5866 0.8103 0.0322
5.5179 0.8103 0.0295
5.4492 0.8103 0.0264
5.3805 0.8103 0.0229
5.3119 0.8103 0.019
5.2432 0.8103 0.0148
5.1746 0.8103 0.0103
5.1061 0.8103 0.0053
5.0375 0.8103 0.0
5.1061 0.8103 -0.0053
5.1746 0.8103 -0.0103
5.2432 0.8103 -0.0148
5.3119 0.8103 -0.019
5.3805 0.8103 -0.0229
5.4492 0.8103 -0.0264
5.5179 0.8103 -0.0295
5.5866 0.8103 -0.0322
5.6553 0.8103 -0.0346
5.724 0.8103 -0.0366
5.7928 0.8103 -0.0383
5.8615 0.8103 -0.0396
5.9302 0.8103 -0.0405
5.999 0.8103 -0.041
6.0678 0.8103 -0.0412
6.1365 0.8103 -0.041
6.2053 0.8103 -0.0405
6.274 0.8103 -0.0396
6.3428 0.8103 -0.0383
6.4115 0.8103 -0.0366
6.4802 0.8103 -0.0346
6.5489 0.8103 -0.0322
6.6176 0.8103 -0.0295
6.6863 0.8103 -0.0264
6.755 0.8103 -0.0229
6.8236 0.8103 -0.019
6.8923 0.8103 -0.0148
6.9609 0.8103 -0.0103
7.0294 0.8103 -0.0053
7.098 0.8103 0.0
7.098 0.8621 0.0
7.0324 0.8621 0.0051
6.9668 0.8621 0.0098
6.9012 0.8621 0.0142
6.8356 0.8621 0.0182
6.7699 0.8621 0.0219
6.7042 0.8621 0.0252
6.6385 0.8621 0.0282
6.5728 0.8621 0.0308
6.5071 0.8621 0.0331
6.4413 0.8621 0.035
6.3756 0.8621 0.0366
6.3098 0.8621 0.0378
6.2441 0.8621 0.0387
6.1783 0.8621 0.0392
6.1126 0.8621 0.0394
6.0468 0.8621 0.0392
5.981 0.8621 0.0387
5.9153 0.8621 0.0378
5.8495 0.8621 0.0366
5.7838 0.8621 0.035
5.718 0.8621 0.0331
5.6523 0.8621 0.0308
5.5866 0.8621 0.0282
5.5209 0.8621 0.0252
5.4552 0.8621 0.0219
5.3895 0.8621 0.0182
5.3239 0.8621 0.0142
5.2583 0.8621 0.0098
5.1927 0.8621 0.0051
5.1271 0.8621 0.0
[...]
POINT_DATA 2541
SCALARS cp1 float
LOOKUP_TABLE default
-0.179309
-0.173085
-0.166663
-0.159194
-0.154295
-0.150819
-0.142498
-0.131746
-0.126404
-0.122835
-0.118087
-0.117538
-0.116228
-0.10825
-0.106665
-0.10251
-0.0948448
-0.0999512
-0.104674
-0.0999793
-0.0922411
-0.0911261
-0.0905116
-0.0909677
-0.0972417
-0.0987499
-0.0977736
-0.098043
-0.0855912
-0.201992
0.0737717
0.362722
0.223199
0.197354
0.178646
0.161081
0.149992
0.141345
0.129673
0.12159
0.109708
0.0919281
0.0771032
0.0731886
0.0753482
0.0637155
0.0483474
0.0390758
0.0300918
0.0264069
0.0291357
0.0296854
0.0257164
0.02083
0.0114616
0.00106239
-0.00354951
-0.0075984
-0.0174674
-0.0266225
-0.033011
-0.178302
-0.174507
-0.168818
-0.162458
-0.157883
-0.152471
-0.144436
-0.135661
-0.130807
-0.127575
-0.123489
-0.121798
-0.119205
-0.112579
-0.110152
-0.10644
-0.101524
-0.104414
-0.106772
-0.103339
-0.0972074
-0.0947552
-0.0945189
-0.0953715
-0.0997807
-0.102517
-0.103071
-0.104832
-0.107585
-0.159446
0.0378621
0.276071
0.226364
0.194335
0.175073
0.157767
0.145702
0.135673
0.124796
0.115277
0.102951
0.0882911
0.0756211
0.0699817
0.0686553
0.0581064
0.04505
0.0367157
0.0291156
0.0253316
0.0257663
0.0254488
0.0223948
0.0180744
0.0107407
0.00115022
-0.0058224
-0.0105142
-0.0186253
-0.0273845
-0.0343563
-0.180432
-0.177119
-0.171416
-0.165865
-0.161835
-0.155111
-0.146805
-0.139175
-0.13527
-0.132446
-0.128672
-0.12667
-0.123258
-0.11656
-0.11456
-0.110929
-0.106375
-0.109187
-0.11087
-0.107892
-0.101917
-0.0985586
-0.0983287
-0.0989753
-0.103193
-0.107057
-0.108145
-0.109965
-0.113125
-0.21246
0.00599762
0.30489
0.22633
0.190375
0.172425
0.154825
0.142429
0.131403
0.120609
0.110999
0.0983215
0.084715
0.0726508
0.0662578
0.0644829
0.0537139
0.0413561
0.034152
0.027062
0.0229912
0.0221965
0.021731
0.0193689
0.0159265
0.0101849
0.0004221
-0.00846211
-0.0132505
-0.0198327
-0.0278592
-0.0345763
-0.186291
-0.180587
-0.174773
-0.170275
-0.165887
-0.158274
-0.149911
-0.143896
-0.140949
-0.137582
-0.134283
-0.132047
-0.127653
-0.121606
-0.119672
-0.116151
-0.1121
-0.11401
-0.115172
-0.113014
-0.10758
-0.103643
-0.103049
-0.103425
-0.106886
-0.111456
-0.114035
-0.116313
-0.118295
-0.245888
-0.0131086
0.324826
0.231558
0.193753
0.17422
0.155129
0.141429
0.129612
0.11916
0.108755
0.095712
0.0826622
0.0708401
0.0634557
0.0607078
0.05065
0.0392356
0.0319915
0.0252786
0.0207375
0.0182978
0.0176472
0.0160863
0.0131615
0.008509
-0.000490068
-0.0105374
-0.0168906
-0.0220626
-0.0287828
-0.0368534
-0.191621
-0.184545
-0.178852
-0.174753
-0.169657
-0.161985
-0.153972
-0.149178
-0.146974
-0.143121
-0.139883
-0.13738
-0.132462
-0.126902
-0.124807
-0.121569
-0.118251
-0.119169
-0.119565
-0.117912
-0.113185
-0.109144
-0.108219
-0.10857
-0.110894
-0.115222
-0.119338
-0.122394
-0.125162
-0.275856
-0.0334989
0.340826
0.239493
0.199312
0.175944
0.15573
0.141892
0.129929
0.119178
0.107474
0.0941023
0.0810442
0.0686836
0.0612321
0.0585511
0.0487308
0.0375472
0.0300686
0.02326
0.0181443
0.014702
0.0140364
0.013191
0.0102203
0.00576065
-0.00198961
-0.0120737
-0.019862
-0.0251675
-0.0311931
-0.03925
-0.194147
-0.18924
-0.184194
-0.178983
-0.172932
-0.165881
-0.159202
-0.155255
-0.152706
-0.148765
-0.145966
-0.142793
-0.137344
-0.132372
-0.130237
-0.126739
-0.124282
-0.125328
-0.124745
-0.122616
-0.118471
-0.114676
-0.113747
-0.114323
-0.115746
-0.119816
-0.124905
-0.128061
-0.130568
-0.301041
-0.0474925
0.358144
0.247855
0.201775
0.1773
0.158652
0.144548
0.131124
0.119394
0.10689
0.0928887
0.0794723
0.0669434
0.0601852
0.0576198
0.047191
0.0360345
0.0283338
0.0208899
0.0156256
0.0118766
0.0110787
0.0102914
0.00679836
0.00197471
-0.00420376
-0.0129811
-0.0214189
-0.0284706
-0.0342985
-0.0387083
-0.196419
-0.194258
-0.189722
-0.183191
-0.176204
-0.170066
-0.165222
-0.161767
-0.158341
-0.154174
-0.152438
-0.148785
-0.142521
-0.137997
-0.135708
-0.131921
-0.130103
-0.131548
-0.130714
-0.128326
-0.124024
-0.119772
-0.119051
-0.120469
-0.12146
-0.124919
-0.130834
-0.13561
-0.138402
-0.329316
-0.0776667
0.367149
0.253191
0.204901
0.181696
0.163734
0.147408
0.132235
0.119445
0.106089
0.092143
0.079016
0.0665296
0.0597424
0.0567867
0.0459751
0.0346007
0.0262149
0.0186748
0.0138274
0.00981721
0.00837144
0.00672588
0.00322481
-0.0021551
-0.00701264
-0.0137125
-0.0222846
-0.0311837
-0.0384848
-0.043459
-0.204358
-0.199898
-0.194201
-0.187496
-0.180714
-0.175043
-0.171228
-0.168122
-0.16444
-0.160077
-0.158633
-0.154404
-0.148108
-0.144367
-0.141027
-0.137233
-0.136655
-0.13765
-0.136435
-0.13442
-0.13046
-0.125949
-0.124409
-0.125769
-0.127208
-0.130332
-0.136539
-0.144303
-0.148159
-0.354178
-0.093051
0.379937
0.260238
0.211098
0.18826
0.168164
0.149194
0.132843
0.119689
0.106164
0.0927424
0.0797011
0.0668996
0.0594617
0.0554167
0.0446692
0.0331705
0.02422
0.0175232
0.0127693
0.00795866
0.00537809
0.00256222
-0.000234727
-0.00566195
-0.0103049
-0.0156032
-0.0233713
-0.0327121
-0.0418012
-0.0497347
-0.210346
-0.204486
-0.198292
-0.192117
-0.186228
-0.181215
-0.177318
-0.173891
-0.170667
-0.16695
-0.164678
-0.1593
-0.153879
-0.151692
-0.146986
-0.142707
-0.143471
-0.143611
-0.142145
-0.140633
-0.13704
-0.133155
-0.130803
-0.131452
-0.133105
-0.135903
-0.142319
-0.151839
-0.156932
-0.377497
-0.100807
0.396055
0.267782
0.21772
0.193477
0.170124
0.15024
0.13474
0.121926
0.107756
0.0935713
0.0798699
0.067424
0.0591422
0.0533977
0.0438604
0.0326211
0.0228073
0.0169778
0.0119513
0.00601233
0.00201371
-0.00166711
-0.00357955
-0.00841404
-0.0137276
-0.0186651
-0.025203
-0.0336611
-0.0428481
-0.0511602
-0.213356
-0.208364
-0.202795
-0.197196
-0.191874
-0.187902
-0.18433
-0.179638
-0.176604
-0.174308
-0.17101
-0.164666
-0.159827
-0.158731
-0.153427
-0.149122
-0.150602
-0.149393
-0.147641
-0.147304
-0.144172
-0.140156
-0.137449
-0.138355
-0.140361
-0.143111
-0.148764
-0.156994
-0.163388
-0.405209
-0.119765
0.40832
0.274133
0.22224
0.196759
0.172957
0.1538
0.138591
0.124645
0.109268
0.0940466
0.0795279
0.067537
0.0587237
0.0523535
0.044488
0.0327854
0.0217223
0.0162477
0.0108378
0.00394579
-0.00160866
-0.00522614
-0.00681534
-0.0113595
-0.0167399
-0.0220179
-0.0277661
-0.0351132
-0.0438946
-0.0527633
-0.220391
-0.213919
-0.208093
-0.202638
-0.197713
-0.194556
-0.19205
-0.186109
-0.183121
-0.181708
-0.176868
-0.170477
-0.166366
-0.165423
-0.159861
-0.15591
-0.157874
-0.156591
-0.153897
-0.15361
-0.151252
-0.147068
-0.144777
-0.145769
-0.147702
-0.1513
-0.157588
-0.166332
-0.173417
-0.440142
-0.170935
0.40725
0.279116
0.228754
0.202054
0.178564
0.158705
0.141617
0.126335
0.110825
0.0943318
0.0790772
0.067962
0.0592056
0.0529376
0.0453323
0.032668
0.0211237
0.0151988
0.00937117
0.00204352
-0.00493321
-0.00766784
-0.0100838
-0.0153414
-0.0193557
-0.0250512
-0.0307791
-0.0373951
-0.0453655
-0.0534194
-0.225012
-0.219163
-0.213655
-0.20864
-0.20441
-0.201669
-0.199229
-0.192926
-0.190885
-0.189333
-0.182497
-0.176502
-0.1734
-0.172293
-0.166929
-0.163055
-0.164665
-0.164356
-0.1614
-0.161025
-0.15911
-0.153758
-0.151946
-0.153597
-0.155245
-0.159176
-0.166963
-0.178014
-0.184287
-0.465861
-0.18889
0.419132
0.290442
0.238063
0.208365
0.183513
0.162675
0.143894
0.127509
0.112006
0.0952003
0.0802839
0.0695074
0.0602165
0.0538397
0.0454705
0.0323731
0.021161
0.0139604
0.00761153
0.000647508
-0.00697802
-0.00966743
-0.013442
-0.019599
-0.0222362
-0.0278318
-0.0341483
-0.0405746
-0.0475875
-0.0549519
-0.228821
-0.224342
-0.219803
-0.21559
-0.211975
-0.209081
-0.205448
-0.200207
-0.199288
-0.19679
-0.188996
-0.183479
-0.180524
-0.178655
-0.174335
-0.171144
-0.17221
-0.171603
-0.168566
-0.169238
-0.168524
-0.162573
-0.159943
-0.161172
-0.162472
-0.167223
-0.176784
-0.18786
-0.193529
-0.489561
-0.191403
0.440236
0.30147
0.244372
0.213007
0.187211
0.165387
0.14594
0.130062
0.114221
0.096911
0.0824246
0.0713855
0.0611017
0.0545338
0.0456748
0.0321273
0.0210692
0.0129349
0.00657327
7.53633e-05
-0.00822328
-0.0124737
-0.0168053
-0.0229193
-0.0258561
-0.0305847
-0.037299
-0.0443964
-0.0505996
-0.057048
-0.236488
-0.231545
-0.227212
-0.223124
-0.219735
-0.216271
-0.211737
-0.208607
-0.207734
-0.203609
-0.195372
-0.191326
-0.18916
-0.185868
-0.181832
-0.178938
-0.18064
-0.179733
-0.176019
-0.177104
-0.17781
-0.172885
-0.169293
-0.170433
-0.1723
-0.17628
-0.185693
-0.197024
-0.203897
-0.525947
-0.22476
0.450538
0.307568
0.247597
0.216672
0.191939
0.169587
0.150162
0.134589
0.116701
0.0980041
0.084347
0.0737405
0.0622597
0.0546871
0.0460926
0.0319395
0.0211668
0.0127448
0.00643321
1.54462e-06
-0.00969111
-0.0156417
-0.0197305
-0.0250667
-0.0297708
-0.0339444
-0.0400952
-0.0480468
-0.0542648
-0.0600911
-0.243506
-0.239286
-0.23558
-0.231309
-0.227397
-0.223556
-0.219384
-0.217693
-0.215452
-0.210243
-0.202138
-0.199868
-0.198333
-0.194106
-0.191532
-0.187945
-0.188713
-0.187658
-0.184263
-0.18591
-0.187479
-0.18289
-0.178059
-0.180613
-0.184589
-0.187718
-0.197623
-0.211524
-0.21876
-0.570624
-0.292513
0.446659
0.312011
0.25461
0.224201
0.199119
0.17501
0.154712
0.138337
0.118418
0.0995122
0.0866663
0.0757105
0.0631871
0.0549797
0.0471302
0.0324787
0.0226489
0.0131396
0.00548863
-0.00051258
-0.0109096
-0.0174996
-0.021921
-0.0271203
-0.0337498
-0.038246
-0.043727
-0.0508766
-0.0574052
-0.0653682
-0.250037
-0.246911
-0.244367
-0.24014
-0.23511
-0.232293
-0.228566
-0.226283
-0.222975
-0.217239
-0.210277
-0.209307
-0.207095
-0.202592
-0.201947
-0.198169
-0.198118
-0.197126
-0.193466
-0.194284
-0.196627
-0.193683
-0.188451
-0.191392
-0.19631
-0.200066
-0.211958
-0.228108
-0.233826
-0.606344
-0.317535
0.45928
0.323803
0.265643
0.232842
0.205047
0.179219
0.159014
0.14227
0.12043
0.101024
0.0887884
0.0775564
0.0649313
0.0570626
0.0491816
0.0336811
0.0242741
0.0132522
0.00409874
-0.000975413
-0.0110367
-0.0182687
-0.0237401
-0.0303693
-0.0376155
-0.0416777
-0.0483487
-0.0538688
-0.0588863
-0.0666613
-0.260916
-0.256087
-0.25296
-0.248691
-0.243338
-0.242719
-0.239058
-0.2345
-0.230773
-0.224155
-0.219714
-0.219864
-0.216539
-0.212205
-0.211132
-0.207967
-0.208774
-0.208305
-0.204575
-0.204027
-0.206836
-0.205591
-0.200131
-0.20251
-0.208091
-0.21393
-0.226753
-0.241816
-0.248666
-0.644589
-0.334964
0.480165
0.335468
0.273462
0.239302
0.210523
0.184138
0.162816
0.144481
0.121972
0.104033
0.0928709
0.0808765
0.0673883
0.0592709
0.05111
0.0349657
0.0248604
0.0140774
0.00401848
-0.00107234
-0.0104325
-0.0195391
-0.0257274
-0.0343394
-0.0403797
-0.0432503
-0.0520531
-0.0575329
-0.0619034
-0.0681331
-0.271119
-0.265383
-0.261087
-0.257492
-0.253492
-0.254052
-0.24956
-0.24286
-0.239153
-0.232807
-0.230924
-0.229931
-0.225757
-0.223458
-0.221268
-0.218706
-0.22
-0.219056
-0.216188
-0.215606
-0.219438
-0.220421
-0.215646
-0.217037
-0.220911
-0.226566
-0.24027
-0.257584
-0.267133
-0.699879
-0.392846
0.488269
0.344988
0.279316
0.244555
0.215542
0.189204
0.167585
0.148294
0.125498
0.109154
0.0979663
0.08438
0.0696224
0.0603935
0.0533312
0.0378123
0.0256006
0.0164616
0.00508805
-0.00251244
-0.0108192
-0.0206365
-0.0263279
-0.0365261
-0.0424748
-0.0451178
-0.0544939
-0.0607556
-0.0668754
-0.0746104
-0.276832
-0.274156
-0.270818
-0.268552
-0.265507
-0.26433
-0.258352
-0.25237
-0.249415
-0.244627
-0.243097
-0.239882
-0.2368
-0.235322
-0.231556
-0.230611
-0.233782
-0.23183
-0.228088
-0.227457
-0.232092
-0.235832
-0.232409
-0.233415
-0.237901
-0.244848
-0.260826
-0.282096
-0.290153
-0.767557
-0.505443
0.476941
0.351546
0.288943
0.254375
0.22331
0.196186
0.174737
0.15355
0.129041
0.113577
0.10238
0.0882959
0.0724505
0.061752
0.0565609
0.0424678
0.0264421
0.0171451
0.0064495
-0.00353489
-0.0108359
-0.0200257
-0.0258918
-0.0358949
-0.0441287
-0.0490321
-0.0572491
-0.0635005
-0.0707082
-0.078077
-0.290726
-0.286497
-0.283135
-0.281508
-0.278326
-0.273178
-0.26654
-0.263012
-0.260601
-0.258165
-0.25627
-0.252764
-0.251056
-0.247764
-0.243437
-0.24389
-0.247859
-0.246005
-0.242321
-0.242111
-0.244859
-0.249923
-0.249646
-0.250139
-0.257851
-0.268719
-0.284676
-0.30718
-0.313017
-0.825944
-0.554261
0.48995
0.36619
0.303105
0.266923
0.231225
0.202622
0.180667
0.1568
0.134005
0.120475
0.108067
0.0927935
0.0756236
0.0635738
0.0590719
0.0465659
0.0284421
0.0176423
0.00905306
-0.00189391
-0.0101507
-0.0185659
-0.0259428
-0.0339874
-0.0443198
-0.0538289
-0.0606725
-0.0657933
-0.0732327
-0.08002
-0.303669
-0.300332
-0.296816
-0.294212
-0.290106
-0.282805
-0.27747
-0.275656
-0.273273
-0.271469
-0.270524
-0.268615
-0.266351
-0.262569
-0.258971
-0.259993
-0.263434
-0.262098
-0.259379
-0.258401
-0.257589
-0.264189
-0.271391
-0.271914
-0.279446
-0.293422
-0.308141
-0.330601
-0.338731
-0.891091
-0.594427
0.516405
0.383555
0.313359
0.273444
0.237148
0.210635
0.187106
0.160428
0.141513
0.128435
0.112745
0.0962079
0.0794224
0.0668691
0.0622582
0.05183
0.0338769
0.0203982
0.0104025
0.000234366
-0.00858136
-0.0172538
-0.0257863
-0.0327036
-0.0433297
-0.0555668
-0.0625592
-0.0687649
-0.0768967
-0.0845142
-0.314752
-0.313873
-0.310116
-0.305755
-0.301471
-0.296199
-0.294114
-0.292464
-0.288093
-0.284655
-0.286686
-0.285983
-0.282525
-0.27986
-0.275037
-0.278795
-0.283987
-0.281591
-0.279246
-0.27768
-0.275777
-0.281838
-0.294807
-0.298583
-0.302511
-0.317528
-0.338133
-0.366796
-0.37382
-0.991431
-0.726669
0.514215
0.396907
0.320784
0.280292
0.246035
0.219515
0.191371
0.16529
0.150925
0.137516
0.12013
0.102474
0.0856758
0.0713563
0.06662
0.0589202
0.039601
0.0236115
0.0109815
0.00286459
-0.0035459
-0.0146449
-0.0260416
-0.0336656
-0.0425838
-0.054004
-0.0610245
-0.0704771
-0.0798944
-0.0859834
-0.331
-0.327497
-0.322918
-0.32024
-0.317774
-0.314733
-0.313939
-0.309514
-0.303844
-0.303827
-0.306374
-0.302906
-0.301639
-0.300332
-0.293577
-0.300922
-0.307075
-0.302448
-0.300161
-0.301024
-0.301466
-0.304372
-0.319076
-0.331584
-0.338133
-0.352712
-0.376598
-0.411619
-0.41569
-1.12375
-0.94728
0.489183
0.408423
0.333514
0.294601
0.260007
0.228792
0.198347
0.176896
0.164271
0.147622
0.128959
0.111358
0.0933365
0.075987
0.0700349
0.0650994
0.0448286
0.0292453
0.0169094
0.00526972
-0.000172424
-0.00920521
-0.0238477
-0.0344012
-0.0420805
-0.0528364
-0.0596917
-0.0697805
-0.0790809
-0.083755
-0.351542
-0.345367
-0.341195
-0.341158
-0.339551
-0.33481
-0.331985
-0.327886
-0.326682
-0.330732
-0.327163
-0.322771
-0.325601
-0.323081
-0.321124
-0.329769
-0.331962
-0.327399
-0.324361
-0.329794
-0.333742
-0.331927
-0.345084
-0.363315
-0.380144
-0.399903
-0.422359
-0.458509
-0.4567
-1.2648
-1.10259
0.49533
0.433746
0.352216
0.311455
0.272242
0.238965
0.212438
0.193511
0.178458
0.155631
0.136345
0.121624
0.102621
0.0842759
0.0735623
0.0694662
0.054328
0.0382197
0.0273095
0.0103531
-0.00100426
-0.00526493
-0.0167977
-0.0283429
-0.039797
-0.0530793
-0.0596309
-0.0682724
-0.0769855
-0.0835632
-0.375713
-0.370046
-0.364953
-0.363665
-0.362995
-0.358503
-0.356231
-0.356193
-0.356658
-0.358494
-0.353634
-0.353654
-0.351658
-0.347449
-0.360148
-0.364472
-0.358343
-0.359664
-0.358917
-0.368585
-0.375763
-0.370177
-0.380184
-0.398066
-0.422422
-0.451402
-0.481763
-0.526419
-0.515606
-1.45062
-1.34078
0.497273
0.46103
0.367543
0.323881
0.284124
0.2538
0.231828
0.21236
0.192797
0.165312
0.14695
0.133613
0.114236
0.0983737
0.0793522
0.0714292
0.0697623
0.0518057
0.0360935
0.020409
0.00436072
-0.00364188
-0.0136399
-0.0207682
-0.0333702
-0.0468665
-0.0532294
-0.0644562
-0.0762148
-0.0885111
-0.394793
-0.399365
-0.396279
-0.395395
-0.396019
-0.391162
-0.388388
-0.39039
-0.392037
-0.39601
-0.394901
-0.389724
-0.379798
-0.387934
-0.411697
-0.403666
-0.392221
-0.404039
-0.410027
-0.417843
-0.4257
-0.423838
-0.43149
-0.447597
-0.478278
-0.518748
-0.562765
-0.621981
-0.594897
-1.74809
-1.79513
0.443276
0.494132
0.386775
0.343405
0.306877
0.279381
0.257233
0.233482
0.20848
0.181004
0.162078
0.144921
0.128008
0.118042
0.0931277
0.0736308
0.08193
0.0734689
0.0493368
0.0300393
0.0156237
0.00622214
-0.00487097
-0.0116532
-0.0263425
-0.0409174
-0.0478995
-0.0561016
-0.0667344
-0.0826658
-0.432901
-0.440423
-0.437112
-0.439238
-0.43942
-0.434477
-0.435492
-0.438656
-0.439262
-0.44171
-0.437638
-0.433352
-0.440642
-0.461355
-0.46904
-0.45365
-0.449917
-0.465387
-0.476226
-0.485301
-0.495494
-0.498287
-0.509912
-0.529303
-0.558519
-0.609511
-0.673713
-0.74273
-0.681581
-2.17228
-2.54354
0.335793
0.552304
0.419961
0.376317
0.340542
0.311985
0.283161
0.255685
0.23138
0.206007
0.184728
0.165752
0.152088
0.142233
0.118695
0.0880033
0.0808055
0.0843264
0.0749365
0.0555715
0.0375986
0.025946
0.0116604
0.00275922
-0.0095556
-0.0277061
-0.039679
-0.0440934
-0.0518127
-0.0724687
-0.43632
-0.489712
-0.471977
-0.477907
-0.476766
-0.472796
-0.47956
-0.482004
-0.48306
-0.492804
-0.489095
-0.485727
-0.506685
-0.519018
-0.510145
-0.509811
-0.513361
-0.509461
-0.522871
-0.557538
-0.567811
-0.561378
-0.58569
-0.615603
-0.632922
-0.683773
-0.762726
-0.827927
-0.606906
-2.68828
-2.95084
0.296506
0.798661
0.515705
0.453177
0.411449
0.37628
0.338634
0.310268
0.287956
0.259153
0.23574
0.226639
0.21484
0.188278
0.165787
0.145069
0.120052
0.115638
0.118092
0.0981108
0.0809541
0.0780458
0.0644834
0.0577272
0.0544196
0.032103
0.0167155
0.0115866
-0.00662121
0.00828657
-0.764273
-0.783096
-0.774107
-0.786019
-0.787137
-0.786507
-0.798572
-0.806771
-0.816757
-0.844571
-0.857173
-0.855905
-0.877948
-0.889576
-0.89023
-0.917894
-0.950809
-0.935716
-0.935513
-1.02154
-1.08375
-1.11245
-1.19026
-1.27039
-1.34126
-1.47694
-1.67957
-1.97147
-2.56746
-6.25088
-7.89762
-2.0115
0.128488
0.294373
0.338976
0.347879
0.340096
0.320786
0.304
0.289482
0.266937
0.249414
0.250054
0.232378
0.188723
0.165212
0.153323
0.125054
0.107955
0.0976858
0.06875
0.0569469
0.0576612
0.0395294
0.0269621
0.0166037
-0.0157322
-0.0348911
-0.0437636
-0.0660023
-0.0616085
-1.28637
-1.28707
-1.30314
-1.32768
-1.32977
-1.33355
-1.36304
-1.3842
-1.39547
-1.43903
-1.47717
-1.48529
-1.52727
-1.55609
-1.55812
-1.60815
-1.72692
-1.71058
-1.63243
-1.82079
-1.99916
-2.0735
-2.25349
-2.41782
-2.5678
-2.87133
-3.2788
-3.90415
-5.12814
-13.5699
-15.1218
-5.05786
-0.705442
-0.172287
0.052654
0.155128
0.202563
0.217291
0.221649
0.226119
0.2187
0.210966
0.222849
0.191062
0.128644
0.113061
0.0975802
0.0547721
0.0376783
0.0192113
-0.0207244
-0.0311177
-0.0452819
-0.0878172
-0.110071
-0.12913
-0.182954
-0.210308
-0.228379
-0.248526
-0.244703
0.39067
0.332691
0.244947
0.112189
-0.00645838
-0.0890971
-0.129822