TITLE = "AGPS 3D Finite Element Data"
VARIABLES = "x", "y", "z", "cp1"
ZONE T="MIXED", N=1830, E=1740, DATAPACKING=BLOCK, ZONETYPE=FEQUADRILATERAL
7.098 7.0116 6.9251 6.8386 6.7521 6.6655 6.5789 6.4923 6.4057 6.3191 6.2324 6.1457 6.0591 5.9724 5.8857 5.799 5.7123 5.6256 5.5389 5.4523 5.3656 5.2789 5.1923 5.1057 5.0191 4.9325 4.8459 4.7594 4.6729 4.5864 4.5 4.5864 4.6729 4.7594 4.8459 4.9325 5.0191 5.1057 5.1923 5.2789 5.3656 5.4523 5.5389 5.6256 5.7123 5.799 5.8857 5.9724 6.0591 6.1457 6.2324 6.3191 6.4057 6.4923 6.5789 6.6655 6.7521 6.8386 6.9251 7.0116 7.098 7.098 7.0145 6.9311 6.8475 6.764 6.6804 6.5968 6.5132 6.4296 6.3459 6.2623 6.1786 6.0949 6.0112 5.9275 5.8438 5.7601 5.6764 5.5927 5.509 5.4253 5.3417 5.258 5.1744 5.0908 5.0072 4.9236 4.84 4.7565 4.673 4.5896 4.673 4.7565 4.84 4.9236 5.0072 5.0908 5.1744 5.258 5.3417 5.4253 5.509 5.5927 5.6764 5.7601 5.8438 5.9275 6.0112 6.0949 6.1786 6.2623 6.3459 6.4296 6.5132 6.5968 6.6804 6.764 6.8475 6.9311 7.0145 7.098 7.098 7.0175 6.937 6.8565 6.7759 6.6953 6.6147 6.5341 6.4535 6.3728 6.2921 6.2114 6.1307 6.05 5.9693 5.8886 5.8079 5.7272 5.6465 5.5658 5.4851 5.4044 5.3237 5.2431 5.1624 5.0818 5.0012 4.9207 4.8401 4.7596 4.6792 4.7596 4.8401 4.9207 5.0012 5.0818 5.1624 5.2431 5.3237 5.4044 5.4851 5.5658 5.6465 5.7272 5.8079 5.8886 5.9693 6.05 6.1307 6.2114 6.2921 6.3728 6.4535 6.5341 6.6147 6.6953 6.7759 6.8565 6.937 7.0175 7.098 7.098 7.0205 6.943 6.8654 6.7879 6.7103 6.6326 6.555 6.4773 6.3996 6.322 6.2443 6.1665 6.0888 6.0111 5.9334 5.8557 5.7779 5.7002 5.6225 5.5448 5.4671 5.3894 5.3118 5.2341 5.1565 5.0789 5.0013 4.9238 4.8463 4.7688 4.8463 4.9238 5.0013 5.0789 5.1565 5.2341 5.3118 5.3894 5.4671 5.5448 5.6225 5.7002 5.7779 5.8557 5.9334 6.0111 6.0888 6.1665 6.2443 6.322 6.3996 6.4773 6.555 6.6326 6.7103 6.7879 6.8654 6.943 7.0205 7.098 7.098 7.0235 6.9489 6.8744 6.7998 6.7252 6.6505 6.5759 6.5012 6.4265 6.3518 6.2771 6.2024 6.1276 6.0529 5.9782 5.9034 5.8287 5.754 5.6793 5.6045 5.5298 5.4552 5.3805 5.3058 5.2312 5.1566 5.082 5.0074 4.9329 4.8583 4.9329 5.0074 5.082 5.1566 5.2312 5.3058 5.3805 5.4552 5.5298 5.6045 5.6793 5.754 5.8287 5.9034 5.9782 6.0529 6.1276 6.2024 6.2771 6.3518 6.4265 6.5012 6.5759 6.6505 6.7252 6.7998 6.8744 6.9489 7.0235 7.098 7.098 7.0265 6.9549 6.8833 6.8117 6.7401 6.6684 6.5968 6.5251 6.4534 6.3816 6.3099 6.2382 6.1665 6.0947 6.023 5.9512 5.8795 5.8077 5.736 5.6643 5.5926 5.5209 5.4492 5.3775 5.3059 5.2342 5.1626 5.091 5.0195 4.9479 5.0195 5.091 5.1626 5.2342 5.3059 5.3775 5.4492 5.5209 5.5926 5.6643 5.736 5.8077 5.8795 5.9512 6.023 6.0947 6.1665 6.2382 6.3099 6.3816 6.4534 6.5251 6.5968 6.6684 6.7401 6.8117 6.8833 6.9549 7.0265 7.098 7.098 7.0294 6.9609 6.8923 6.8236 6.755 6.6863 6.6176 6.5489 6.4802 6.4115 6.3428 6.274 6.2053 6.1365 6.0678 5.999 5.9302 5.8615 5.7928 5.724 5.6553 5.5866 5.5179 5.4492 5.3805 5.3119 5.2432 5.1746 5.1061 5.0375 5.1061 5.1746 5.2432 5.3119 5.3805 5.4492 5.5179 5.5866 5.6553 5.724 5.7928 5.8615 5.9302 5.999 6.0678 6.1365 6.2053 6.274 6.3428 6.4115 6.4802 6.5489 6.6176 6.6863 6.755 6.8236 6.8923 6.9609 7.0294 7.098 7.098 7.0324 6.9668 6.9012 6.8356 6.7699 6.7042 6.6385 6.5728 6.5071 6.4413 6.3756 6.3098 6.2441 6.1783 6.1126 6.0468 5.981 5.9153 5.8495 5.7838 5.718 5.6523 5.5866 5.5209 5.4552 5.3895 5.3239 5.2583 5.1927 5.1271 5.1927 5.2583 5.3239 5.3895 5.4552 5.5209 5.5866 5.6523 5.718 5.7838 5.8495 5.9153 5.981 6.0468 6.1126 6.1783 6.2441 6.3098 6.3756 6.4413 6.5071 6.5728 6.6385 6.7042 6.7699 6.8356 6.9012 6.9668 7.0324 7.098 7.098 7.0354 6.9728 6.9102 6.8475 6.7848 6.7221 6.6594 6.5967 6.5339 6.4712 6.4084 6.3457 6.2829 6.2201 6.1573 6.0946 6.0318 5.969 5.9063 5.8435 5.7807 5.718 5.6553 5.5926 5.5299 5.4672 5.4045 5.3419 5.2793 5.2167 5.2793 5.3419 5.4045 5.4672 5.5299 5.5926 5.6553 5.718 5.7807 5.8435 5.9063 5.969 6.0318 6.0946 6.1573 6.2201 6.2829 6.3457 6.4084 6.4712 6.5339 6.5967 6.6594 6.7221 6.7848 6.8475 6.9102 6.9728 7.0354 7.098 7.098 7.0384 6.9788 6.9191 6.8594 6.7997 6.74 6.6803 6.6206 6.5608 6.501 6.4413 6.3815 6.3217 6.2619 6.2021 6.1424 6.0826 6.0228 5.963 5.9032 5.8435 5.7837 5.724 5.6643 5.6045 5.5448 5.4852 5.4255 5.3659 5.3063 5.3659 5.4255 5.4852 5.5448 5.6045 5.6643 5.724 5.7837 5.8435 5.9032 5.963 6.0228 6.0826 6.1424 6.2021 6.2619 6.3217 6.3815 6.4413 6.501 6.5608 6.6206 6.6803 6.74 6.7997 6.8594 6.9191 6.9788 7.0384 7.098 7.098 7.0414 6.9847 6.928 6.8714 6.8146 6.7579 6.7012 6.6444 6.5877 6.5309 6.4741 6.4173 6.3605 6.3037 6.2469 6.1901 6.1333 6.0765 6.0198 5.963 5.9062 5.8494 5.7927 5.7359 5.6792 5.6225 5.5658 5.5091 5.4525 5.3959 5.4525 5.5091 5.5658 5.6225 5.6792 5.7359 5.7927 5.8494 5.9062 5.963 6.0198 6.0765 6.1333 6.1901 6.2469 6.3037 6.3605 6.4173 6.4741 6.5309 6.5877 6.6444 6.7012 6.7579 6.8146 6.8714 6.928 6.9847 7.0414 7.098 7.098 7.0444 6.9907 6.937 6.8833 6.8296 6.7758 6.7221 6.6683 6.6145 6.5607 6.5069 6.4531 6.3993 6.3455 6.2917 6.2379 6.1841 6.1303 6.0765 6.0227 5.9689 5.9151 5.8614 5.8076 5.7539 5.7002 5.6465 5.5928 5.5391 5.4854 5.5391 5.5928 5.6465 5.7002 5.7539 5.8076 5.8614 5.9151 5.9689 6.0227 6.0765 6.1303 6.1841 6.2379 6.2917 6.3455 6.3993 6.4531 6.5069 6.5607 6.6145 6.6683 6.7221 6.7758 6.8296 6.8833 6.937 6.9907 7.0444 7.098 7.098 7.0473 6.9966 6.9459 6.8952 6.8445 6.7937 6.743 6.6922 6.6414 6.5906 6.5398 6.489 6.4382 6.3873 6.3365 6.2857 6.2349 6.1841 6.1333 6.0824 6.0317 5.9809 5.9301 5.8793 5.8286 5.7778 5.7271 5.6764 5.6257 5.575 5.6257 5.6764 5.7271 5.7778 5.8286 5.8793 5.9301 5.9809 6.0317 6.0824 6.1333 6.1841 6.2349 6.2857 6.3365 6.3873 6.4382 6.489 6.5398 6.5906 6.6414 6.6922 6.743 6.7937 6.8445 6.8952 6.9459 6.9966 7.0473 7.098 7.098 7.0503 7.0026 6.9549 6.9071 6.8594 6.8116 6.7638 6.716 6.6682 6.6204 6.5726 6.5248 6.477 6.4291 6.3813 6.3335 6.2857 6.2378 6.19 6.1422 6.0944 6.0466 5.9988 5.951 5.9032 5.8555 5.8077 5.76 5.7123 5.6646 5.7123 5.76 5.8077 5.8555 5.9032 5.951 5.9988 6.0466 6.0944 6.1422 6.19 6.2378 6.2857 6.3335 6.3813 6.4291 6.477 6.5248 6.5726 6.6204 6.6682 6.716 6.7638 6.8116 6.8594 6.9071 6.9549 7.0026 7.0503 7.098 7.098 7.0533 7.0086 6.9638 6.9191 6.8743 6.8295 6.7847 6.7399 6.6951 6.6503 6.6055 6.5606 6.5158 6.4709 6.4261 6.3813 6.3364 6.2916 6.2468 6.2019 6.1571 6.1123 6.0675 6.0227 5.9779 5.9331 5.8884 5.8436 5.7989 5.7542 5.7989 5.8436 5.8884 5.9331 5.9779 6.0227 6.0675 6.1123 6.1571 6.2019 6.2468 6.2916 6.3364 6.3813 6.4261 6.4709 6.5158 6.5606 6.6055 6.6503 6.6951 6.7399 6.7847 6.8295 6.8743 6.9191 6.9638 7.0086 7.0533 7.098 7.098 7.0563 7.0145 6.9728 6.931 6.8892 6.8474 6.8056 6.7638 6.722 6.6801 6.6383 6.5964 6.5546 6.5127 6.4709 6.429 6.3872 6.3453 6.3035 6.2617 6.2198 6.178 6.1362 6.0944 6.0526 6.0108 5.969 5.9273 5.8855 5.8438 5.8855 5.9273 5.969 6.0108 6.0526 6.0944 6.1362 6.178 6.2198 6.2617 6.3035 6.3453 6.3872 6.429 6.4709 6.5127 6.5546 6.5964 6.6383 6.6801 6.722 6.7638 6.8056 6.8474 6.8892 6.931 6.9728 7.0145 7.0563 7.098 7.098 7.0593 7.0205 6.9817 6.9429 6.9041 6.8653 6.8265 6.7877 6.7488 6.71 6.6711 6.6323 6.5934 6.5546 6.5157 6.4768 6.438 6.3991 6.3603 6.3214 6.2826 6.2437 6.2049 6.1661 6.1273 6.0885 6.0497 6.0109 5.9721 5.9334 5.9721 6.0109 6.0497 6.0885 6.1273 6.1661 6.2049 6.2437 6.2826 6.3214 6.3603 6.3991 6.438 6.4768 6.5157 6.5546 6.5934 6.6323 6.6711 6.71 6.7488 6.7877 6.8265 6.8653 6.9041 6.9429 6.9817 7.0205 7.0593 7.098 7.098 7.0622 7.0265 6.9907 6.9549 6.919 6.8832 6.8474 6.8115 6.7757 6.7398 6.704 6.6681 6.6322 6.5964 6.5605 6.5246 6.4887 6.4529 6.417 6.3811 6.3453 6.3094 6.2736 6.2378 6.2019 6.1661 6.1303 6.0945 6.0587 6.023 6.0587 6.0945 6.1303 6.1661 6.2019 6.2378 6.2736 6.3094 6.3453 6.3811 6.417 6.4529 6.4887 6.5246 6.5605 6.5964 6.6322 6.6681 6.704 6.7398 6.7757 6.8115 6.8474 6.8832 6.919 6.9549 6.9907 7.0265 7.0622 7.098 7.098 7.0652 7.0324 6.9996 6.9668 6.934 6.9011 6.8683 6.8354 6.8025 6.7697 6.7368 6.7039 6.671 6.6382 6.6053 6.5724 6.5395 6.5066 6.4738 6.4409 6.408 6.3751 6.3423 6.3094 6.2766 6.2438 6.2109 6.1781 6.1453 6.1126 6.1453 6.1781 6.2109 6.2438 6.2766 6.3094 6.3423 6.3751 6.408 6.4409 6.4738 6.5066 6.5395 6.5724 6.6053 6.6382 6.671 6.7039 6.7368 6.7697 6.8025 6.8354 6.8683 6.9011 6.934 6.9668 6.9996 7.0324 7.0652 7.098 7.098 7.0682 7.0384 7.0086 6.9787 6.9489 6.919 6.8891 6.8593 6.8294 6.7995 6.7696 6.7397 6.7099 6.68 6.6501 6.6202 6.5903 6.5604 6.5305 6.5006 6.4707 6.4409 6.411 6.3811 6.3513 6.3214 6.2916 6.2618 6.2319 6.2021 6.2319 6.2618 6.2916 6.3214 6.3513 6.3811 6.411 6.4409 6.4707 6.5006 6.5305 6.5604 6.5903 6.6202 6.6501 6.68 6.7099 6.7397 6.7696 6.7995 6.8294 6.8593 6.8891 6.919 6.9489 6.9787 7.0086 7.0384 7.0682 7.098 7.098 7.0712 7.0443 7.0175 6.9906 6.9638 6.9369 6.91 6.8832 6.8563 6.8294 6.8025 6.7756 6.7487 6.7218 6.6949 6.668 6.6411 6.6142 6.5873 6.5604 6.5335 6.5066 6.4797 6.4528 6.4259 6.3991 6.3722 6.3454 6.3185 6.2917 6.3185 6.3454 6.3722 6.3991 6.4259 6.4528 6.4797 6.5066 6.5335 6.5604 6.5873 6.6142 6.6411 6.668 6.6949 6.7218 6.7487 6.7756 6.8025 6.8294 6.8563 6.8832 6.91 6.9369 6.9638 6.9906 7.0175 7.0443 7.0712 7.098 7.098 7.0742 7.0503 7.0264 7.0026 6.9787 6.9548 6.9309 6.907 6.8831 6.8592 6.8353 6.8114 6.7875 6.7636 6.7397 6.7157 6.6918 6.6679 6.644 6.6201 6.5962 6.5723 6.5484 6.5245 6.5006 6.4767 6.4529 6.429 6.4052 6.3813 6.4052 6.429 6.4529 6.4767 6.5006 6.5245 6.5484 6.5723 6.5962 6.6201 6.644 6.6679 6.6918 6.7157 6.7397 6.7636 6.7875 6.8114 6.8353 6.8592 6.8831 6.907 6.9309 6.9548 6.9787 7.0026 7.0264 7.0503 7.0742 7.098 7.098 7.0771 7.0563 7.0354 7.0145 6.9936 6.9727 6.9518 6.9309 6.91 6.8891 6.8681 6.8472 6.8263 6.8054 6.7844 6.7635 6.7426 6.7217 6.7008 6.6798 6.6589 6.638 6.6171 6.5962 6.5753 6.5544 6.5335 6.5126 6.4918 6.4709 6.4918 6.5126 6.5335 6.5544 6.5753 6.5962 6.6171 6.638 6.6589 6.6798 6.7008 6.7217 6.7426 6.7635 6.7844 6.8054 6.8263 6.8472 6.8681 6.8891 6.91 6.9309 6.9518 6.9727 6.9936 7.0145 7.0354 7.0563 7.0771 7.098 7.098 7.0801 7.0622 7.0443 7.0264 7.0085 6.9906 6.9727 6.9548 6.9368 6.9189 6.901 6.883 6.8651 6.8472 6.8292 6.8113 6.7934 6.7754 6.7575 6.7396 6.7216 6.7037 6.6858 6.6679 6.65 6.6321 6.6142 6.5963 6.5784 6.5605 6.5784 6.5963 6.6142 6.6321 6.65 6.6679 6.6858 6.7037 6.7216 6.7396 6.7575 6.7754 6.7934 6.8113 6.8292 6.8472 6.8651 6.883 6.901 6.9189 6.9368 6.9548 6.9727 6.9906 7.0085 7.0264 7.0443 7.0622 7.0801 7.098 7.098 7.0831 7.0682 7.0533 7.0384 7.0234 7.0085 6.9936 6.9786 6.9637 6.9488 6.9338 6.9189 6.9039 6.889 6.874 6.8591 6.8441 6.8292 6.8143 6.7993 6.7844 6.7694 6.7545 6.7396 6.7246 6.7097 6.6948 6.6799 6.665 6.6501 6.665 6.6799 6.6948 6.7097 6.7246 6.7396 6.7545 6.7694 6.7844 6.7993 6.8143 6.8292 6.8441 6.8591 6.874 6.889 6.9039 6.9189 6.9338 6.9488 6.9637 6.9786 6.9936 7.0085 7.0234 7.0384 7.0533 7.0682 7.0831 7.098 7.098 7.0861 7.0742 7.0622 7.0503 7.0383 7.0264 7.0145 7.0025 6.9906 6.9786 6.9667 6.9547 6.9427 6.9308 6.9188 6.9069 6.8949 6.883 6.871 6.859 6.8471 6.8351 6.8232 6.8113 6.7993 6.7874 6.7754 6.7635 6.7516 6.7397 6.7516 6.7635 6.7754 6.7874 6.7993 6.8113 6.8232 6.8351 6.8471 6.859 6.871 6.883 6.8949 6.9069 6.9188 6.9308 6.9427 6.9547 6.9667 6.9786 6.9906 7.0025 7.0145 7.0264 7.0383 7.0503 7.0622 7.0742 7.0861 7.098 7.098 7.0891 7.0801 7.0712 7.0622 7.0533 7.0443 7.0353 7.0264 7.0174 7.0085 6.9995 6.9905 6.9816 6.9726 6.9636 6.9547 6.9457 6.9367 6.9278 6.9188 6.9098 6.9009 6.8919 6.8829 6.874 6.865 6.8561 6.8471 6.8382 6.8292 6.8382 6.8471 6.8561 6.865 6.874 6.8829 6.8919 6.9009 6.9098 6.9188 6.9278 6.9367 6.9457 6.9547 6.9636 6.9726 6.9816 6.9905 6.9995 7.0085 7.0174 7.0264 7.0353 7.0443 7.0533 7.0622 7.0712 7.0801 7.0891 7.098 7.098 7.092 7.0861 7.0801 7.0741 7.0682 7.0622 7.0562 7.0503 7.0443 7.0383 7.0323 7.0263 7.0204 7.0144 7.0084 7.0024 6.9965 6.9905 6.9845 6.9785 6.9725 6.9666 6.9606 6.9546 6.9487 6.9427 6.9367 6.9308 6.9248 6.9188 6.9248 6.9308 6.9367 6.9427 6.9487 6.9546 6.9606 6.9666 6.9725 6.9785 6.9845 6.9905 6.9965 7.0024 7.0084 7.0144 7.0204 7.0263 7.0323 7.0383 7.0443 7.0503 7.0562 7.0622 7.0682 7.0741 7.0801 7.0861 7.092 7.098 7.098 7.095 7.092 7.0891 7.0861 7.0831 7.0801 7.0771 7.0741 7.0711 7.0682 7.0652 7.0622 7.0592 7.0562 7.0532 7.0502 7.0472 7.0442 7.0413 7.0383 7.0353 7.0323 7.0293 7.0263 7.0233 7.0203 7.0174 7.0144 7.0114 7.0084 7.0114 7.0144 7.0174 7.0203 7.0233 7.0263 7.0293 7.0323 7.0353 7.0383 7.0413 7.0442 7.0472 7.0502 7.0532 7.0562 7.0592 7.0622 7.0652 7.0682 7.0711 7.0741 7.0771 7.0801 7.0831 7.0861 7.0891 7.092 7.095 7.098 7.098 7.098 7.098 7.098 7.098 7.098 7.098 7.098 7.098 7.098 7.098 7.098 7.098 7.098 7.098 7.098 7.098 7.098 7.098 7.098 7.098 7.098 7.098 7.098 7.098 7.098 7.098 7.098 7.098 7.098 7.098 7.098 7.098 7.098 7.098 7.098 7.098 7.098 7.098 7.098 7.098 7.098 7.098 7.098 7.098 7.098 7.098 7.098 7.098 7.098 7.098 7.098 7.098 7.098 7.098 7.098 7.098 7.098 7.098 7.098 7.098
0.5 0.5 0.5 0.5 0.5 0.5 0.5 0.5 0.5 0.5 0.5 0.5 0.5 0.5 0.5 0.5 0.5 0.5 0.5 0.5 0.5 0.5 0.5 0.5 0.5 0.5 0.5 0.5 0.5 0.5 0.5 0.5 0.5 0.5 0.5 0.5 0.5 0.5 0.5 0.5 0.5 0.5 0.5 0.5 0.5 0.5 0.5 0.5 0.5 0.5 0.5 0.5 0.5 0.5 0.5 0.5 0.5 0.5 0.5 0.5 0.5 0.5517 0.5517 0.5517 0.5517 0.5517 0.5517 0.5517 0.5517 0.5517 0.5517 0.5517 0.5517 0.5517 0.5517 0.5517 0.5517 0.5517 0.5517 0.5517 0.5517 0.5517 0.5517 0.5517 0.5517 0.5517 0.5517 0.5517 0.5517 0.5517 0.5517 0.5517 0.5517 0.5517 0.5517 0.5517 0.5517 0.5517 0.5517 0.5517 0.5517 0.5517 0.5517 0.5517 0.5517 0.5517 0.5517 0.5517 0.5517 0.5517 0.5517 0.5517 0.5517 0.5517 0.5517 0.5517 0.5517 0.5517 0.5517 0.5517 0.5517 0.5517 0.6034 0.6034 0.6034 0.6034 0.6034 0.6034 0.6034 0.6034 0.6034 0.6034 0.6034 0.6034 0.6034 0.6034 0.6034 0.6034 0.6034 0.6034 0.6034 0.6034 0.6034 0.6034 0.6034 0.6034 0.6034 0.6034 0.6034 0.6034 0.6034 0.6034 0.6034 0.6034 0.6034 0.6034 0.6034 0.6034 0.6034 0.6034 0.6034 0.6034 0.6034 0.6034 0.6034 0.6034 0.6034 0.6034 0.6034 0.6034 0.6034 0.6034 0.6034 0.6034 0.6034 0.6034 0.6034 0.6034 0.6034 0.6034 0.6034 0.6034 0.6034 0.6552 0.6552 0.6552 0.6552 0.6552 0.6552 0.6552 0.6552 0.6552 0.6552 0.6552 0.6552 0.6552 0.6552 0.6552 0.6552 0.6552 0.6552 0.6552 0.6552 0.6552 0.6552 0.6552 0.6552 0.6552 0.6552 0.6552 0.6552 0.6552 0.6552 0.6552 0.6552 0.6552 0.6552 0.6552 0.6552 0.6552 0.6552 0.6552 0.6552 0.6552 0.6552 0.6552 0.6552 0.6552 0.6552 0.6552 0.6552 0.6552 0.6552 0.6552 0.6552 0.6552 0.6552 0.6552 0.6552 0.6552 0.6552 0.6552 0.6552 0.6552 0.7069 0.7069 0.7069 0.7069 0.7069 0.7069 0.7069 0.7069 0.7069 0.7069 0.7069 0.7069 0.7069 0.7069 0.7069 0.7069 0.7069 0.7069 0.7069 0.7069 0.7069 0.7069 0.7069 0.7069 0.7069 0.7069 0.7069 0.7069 0.7069 0.7069 0.7069 0.7069 0.7069 0.7069 0.7069 0.7069 0.7069 0.7069 0.7069 0.7069 0.7069 0.7069 0.7069 0.7069 0.7069 0.7069 0.7069 0.7069 0.7069 0.7069 0.7069 0.7069 0.7069 0.7069 0.7069 0.7069 0.7069 0.7069 0.7069 0.7069 0.7069 0.7586 0.7586 0.7586 0.7586 0.7586 0.7586 0.7586 0.7586 0.7586 0.7586 0.7586 0.7586 0.7586 0.7586 0.7586 0.7586 0.7586 0.7586 0.7586 0.7586 0.7586 0.7586 0.7586 0.7586 0.7586 0.7586 0.7586 0.7586 0.7586 0.7586 0.7586 0.7586 0.7586 0.7586 0.7586 0.7586 0.7586 0.7586 0.7586 0.7586 0.7586 0.7586 0.7586 0.7586 0.7586 0.7586 0.7586 0.7586 0.7586 0.7586 0.7586 0.7586 0.7586 0.7586 0.7586 0.7586 0.7586 0.7586 0.7586 0.7586 0.7586 0.8103 0.8103 0.8103 0.8103 0.8103 0.8103 0.8103 0.8103 0.8103 0.8103 0.8103 0.8103 0.8103 0.8103 0.8103 0.8103 0.8103 0.8103 0.8103 0.8103 0.8103 0.8103 0.8103 0.8103 0.8103 0.8103 0.8103 0.8103 0.8103 0.8103 0.8103 0.8103 0.8103 0.8103 0.8103 0.8103 0.8103 0.8103 0.8103 0.8103 0.8103 0.8103 0.8103 0.8103 0.8103 0.8103 0.8103 0.8103 0.8103 0.8103 0.8103 0.8103 0.8103 0.8103 0.8103 0.8103 0.8103 0.8103 0.8103 0.8103 0.8103 0.8621 0.8621 0.8621 0.8621 0.8621 0.8621 0.8621 0.8621 0.8621 0.8621 0.8621 0.8621 0.8621 0.8621 0.8621 0.8621 0.8621 0.8621 0.8621 0.8621 0.8621 0.8621 0.8621 0.8621 0.8621 0.8621 0.8621 0.8621 0.8621 0.8621 0.8621 0.8621 0.8621 0.8621 0.8621 0.8621 0.8621 0.8621 0.8621 0.8621 0.8621 0.8621 0.8621 0.8621 0.8621 0.8621 0.8621 0.8621 0.8621 0.8621 0.8621 0.8621 0.8621 0.8621 0.8621 0.8621 0.8621 0.8621 0.8621 0.8621 0.8621 0.9138 0.9138 0.9138 0.9138 0.9138 0.9138 0.9138 0.9138 0.9138 0.9138 0.9138 0.9138 0.9138 0.9138 0.9138 0.9138 0.9138 0.9138 0.9138 0.9138 0.9138 0.9138 0.9138 0.9138 0.9138 0.9138 0.9138 0.9138 0.9138 0.9138 0.9138 0.9138 0.9138 0.9138 0.9138 0.9138 0.9138 0.9138 0.9138 0.9138 0.9138 0.9138 0.9138 0.9138 0.9138 0.9138 0.9138 0.9138 0.9138 0.9138 0.9138 0.9138 0.9138 0.9138 0.9138 0.9138 0.9138 0.9138 0.9138 0.9138 0.9138 0.9655 0.9655 0.9655 0.9655 0.9655 0.9655 0.9655 0.9655 0.9655 0.9655 0.9655 0.9655 0.9655 0.9655 0.9655 0.9655 0.9655 0.9655 0.9655 0.9655 0.9655 0.9655 0.9655 0.9655 0.9655 0.9655 0.9655 0.9655 0.9655 0.9655 0.9655 0.9655 0.9655 0.9655 0.9655 0.9655 0.9655 0.9655 0.9655 0.9655 0.9655 0.9655 0.9655 0.9655 0.9655 0.9655 0.9655 0.9655 0.9655 0.9655 0.9655 0.9655 0.9655 0.9655 0.9655 0.9655 0.9655 0.9655 0.9655 0.9655 0.9655 1.0172 1.0172 1.0172 1.0172 1.0172 1.0172 1.0172 1.0172 1.0172 1.0172 1.0172 1.0172 1.0172 1.0172 1.0172 1.0172 1.0172 1.0172 1.0172 1.0172 1.0172 1.0172 1.0172 1.0172 1.0172 1.0172 1.0172 1.0172 1.0172 1.0172 1.0172 1.0172 1.0172 1.0172 1.0172 1.0172 1.0172 1.0172 1.0172 1.0172 1.0172 1.0172 1.0172 1.0172 1.0172 1.0172 1.0172 1.0172 1.0172 1.0172 1.0172 1.0172 1.0172 1.0172 1.0172 1.0172 1.0172 1.0172 1.0172 1.0172 1.0172 1.069 1.069 1.069 1.069 1.069 1.069 1.069 1.069 1.069 1.069 1.069 1.069 1.069 1.069 1.069 1.069 1.069 1.069 1.069 1.069 1.069 1.069 1.069 1.069 1.069 1.069 1.069 1.069 1.069 1.069 1.069 1.069 1.069 1.069 1.069 1.069 1.069 1.069 1.069 1.069 1.069 1.069 1.069 1.069 1.069 1.069 1.069 1.069 1.069 1.069 1.069 1.069 1.069 1.069 1.069 1.069 1.069 1.069 1.069 1.069 1.069 1.1207 1.1207 1.1207 1.1207 1.1207 1.1207 1.1207 1.1207 1.1207 1.1207 1.1207 1.1207 1.1207 1.1207 1.1207 1.1207 1.1207 1.1207 1.1207 1.1207 1.1207 1.1207 1.1207 1.1207 1.1207 1.1207 1.1207 1.1207 1.1207 1.1207 1.1207 1.1207 1.1207 1.1207 1.1207 1.1207 1.1207 1.1207 1.1207 1.1207 1.1207 1.1207 1.1207 1.1207 1.1207 1.1207 1.1207 1.1207 1.1207 1.1207 1.1207 1.1207 1.1207 1.1207 1.1207 1.1207 1.1207 1.1207 1.1207 1.1207 1.1207 1.1724 1.1724 1.1724 1.1724 1.1724 1.1724 1.1724 1.1724 1.1724 1.1724 1.1724 1.1724 1.1724 1.1724 1.1724 1.1724 1.1724 1.1724 1.1724 1.1724 1.1724 1.1724 1.1724 1.1724 1.1724 1.1724 1.1724 1.1724 1.1724 1.1724 1.1724 1.1724 1.1724 1.1724 1.1724 1.1724 1.1724 1.1724 1.1724 1.1724 1.1724 1.1724 1.1724 1.1724 1.1724 1.1724 1.1724 1.1724 1.1724 1.1724 1.1724 1.1724 1.1724 1.1724 1.1724 1.1724 1.1724 1.1724 1.1724 1.1724 1.1724 1.2241 1.2241 1.2241 1.2241 1.2241 1.2241 1.2241 1.2241 1.2241 1.2241 1.2241 1.2241 1.2241 1.2241 1.2241 1.2241 1.2241 1.2241 1.2241 1.2241 1.2241 1.2241 1.2241 1.2241 1.2241 1.2241 1.2241 1.2241 1.2241 1.2241 1.2241 1.2241 1.2241 1.2241 1.2241 1.2241 1.2241 1.2241 1.2241 1.2241 1.2241 1.2241 1.2241 1.2241 1.2241 1.2241 1.2241 1.2241 1.2241 1.2241 1.2241 1.2241 1.2241 1.2241 1.2241 1.2241 1.2241 1.2241 1.2241 1.2241 1.2241 1.2759 1.2759 1.2759 1.2759 1.2759 1.2759 1.2759 1.2759 1.2759 1.2759 1.2759 1.2759 1.2759 1.2759 1.2759 1.2759 1.2759 1.2759 1.2759 1.2759 1.2759 1.2759 1.2759 1.2759 1.2759 1.2759 1.2759 1.2759 1.2759 1.2759 1.2759 1.2759 1.2759 1.2759 1.2759 1.2759 1.2759 1.2759 1.2759 1.2759 1.2759 1.2759 1.2759 1.2759 1.2759 1.2759 1.2759 1.2759 1.2759 1.2759 1.2759 1.2759 1.2759 1.2759 1.2759 1.2759 1.2759 1.2759 1.2759 1.2759 1.2759 1.3276 1.3276 1.3276 1.3276 1.3276 1.3276 1.3276 1.3276 1.3276 1.3276 1.3276 1.3276 1.3276 1.3276 1.3276 1.3276 1.3276 1.3276 1.3276 1.3276 1.3276 1.3276 1.3276 1.3276 1.3276 1.3276 1.3276 1.3276 1.3276 1.3276 1.3276 1.3276 1.3276 1.3276 1.3276 1.3276 1.3276 1.3276 1.3276 1.3276 1.3276 1.3276 1.3276 1.3276 1.3276 1.3276 1.3276 1.3276 1.3276 1.3276 1.3276 1.3276 1.3276 1.3276 1.3276 1.3276 1.3276 1.3276 1.3276 1.3276 1.3276 1.3793 1.3793 1.3793 1.3793 1.3793 1.3793 1.3793 1.3793 1.3793 1.3793 1.3793 1.3793 1.3793 1.3793 1.3793 1.3793 1.3793 1.3793 1.3793 1.3793 1.3793 1.3793 1.3793 1.3793 1.3793 1.3793 1.3793 1.3793 1.3793 1.3793 1.3793 1.3793 1.3793 1.3793 1.3793 1.3793 1.3793 1.3793 1.3793 1.3793 1.3793 1.3793 1.3793 1.3793 1.3793 1.3793 1.3793 1.3793 1.3793 1.3793 1.3793 1.3793 1.3793 1.3793 1.3793 1.3793 1.3793 1.3793 1.3793 1.3793 1.3793 1.431 1.431 1.431 1.431 1.431 1.431 1.431 1.431 1.431 1.431 1.431 1.431 1.431 1.431 1.431 1.431 1.431 1.431 1.431 1.431 1.431 1.431 1.431 1.431 1.431 1.431 1.431 1.431 1.431 1.431 1.431 1.431 1.431 1.431 1.431 1.431 1.431 1.431 1.431 1.431 1.431 1.431 1.431 1.431 1.431 1.431 1.431 1.431 1.431 1.431 1.431 1.431 1.431 1.431 1.431 1.431 1.431 1.431 1.431 1.431 1.431 1.4828 1.4828 1.4828 1.4828 1.4828 1.4828 1.4828 1.4828 1.4828 1.4828 1.4828 1.4828 1.4828 1.4828 1.4828 1.4828 1.4828 1.4828 1.4828 1.4828 1.4828 1.4828 1.4828 1.4828 1.4828 1.4828 1.4828 1.4828 1.4828 1.4828 1.4828 1.4828 1.4828 1.4828 1.4828 1.4828 1.4828 1.4828 1.4828 1.4828 1.4828 1.4828 1.4828 1.4828 1.4828 1.4828 1.4828 1.4828 1.4828 1.4828 1.4828 1.4828 1.4828 1.4828 1.4828 1.4828 1.4828 1.4828 1.4828 1.4828 1.4828 1.5345 1.5345 1.5345 1.5345 1.5345 1.5345 1.5345 1.5345 1.5345 1.5345 1.5345 1.5345 1.5345 1.5345 1.5345 1.5345 1.5345 1.5345 1.5345 1.5345 1.5345 1.5345 1.5345 1.5345 1.5345 1.5345 1.5345 1.5345 1.5345 1.5345 1.5345 1.5345 1.5345 1.5345 1.5345 1.5345 1.5345 1.5345 1.5345 1.5345 1.5345 1.5345 1.5345 1.5345 1.5345 1.5345 1.5345 1.5345 1.5345 1.5345 1.5345 1.5345 1.5345 1.5345 1.5345 1.5345 1.5345 1.5345 1.5345 1.5345 1.5345 1.5862 1.5862 1.5862 1.5862 1.5862 1.5862 1.5862 1.5862 1.5862 1.5862 1.5862 1.5862 1.5862 1.5862 1.5862 1.5862 1.5862 1.5862 1.5862 1.5862 1.5862 1.5862 1.5862 1.5862 1.5862 1.5862 1.5862 1.5862 1.5862 1.5862 1.5862 1.5862 1.5862 1.5862 1.5862 1.5862 1.5862 1.5862 1.5862 1.5862 1.5862 1.5862 1.5862 1.5862 1.5862 1.5862 1.5862 1.5862 1.5862 1.5862 1.5862 1.5862 1.5862 1.5862 1.5862 1.5862 1.5862 1.5862 1.5862 1.5862 1.5862 1.6379 1.6379 1.6379 1.6379 1.6379 1.6379 1.6379 1.6379 1.6379 1.6379 1.6379 1.6379 1.6379 1.6379 1.6379 1.6379 1.6379 1.6379 1.6379 1.6379 1.6379 1.6379 1.6379 1.6379 1.6379 1.6379 1.6379 1.6379 1.6379 1.6379 1.6379 1.6379 1.6379 1.6379 1.6379 1.6379 1.6379 1.6379 1.6379 1.6379 1.6379 1.6379 1.6379 1.6379 1.6379 1.6379 1.6379 1.6379 1.6379 1.6379 1.6379 1.6379 1.6379 1.6379 1.6379 1.6379 1.6379 1.6379 1.6379 1.6379 1.6379 1.6897 1.6897 1.6897 1.6897 1.6897 1.6897 1.6897 1.6897 1.6897 1.6897 1.6897 1.6897 1.6897 1.6897 1.6897 1.6897 1.6897 1.6897 1.6897 1.6897 1.6897 1.6897 1.6897 1.6897 1.6897 1.6897 1.6897 1.6897 1.6897 1.6897 1.6897 1.6897 1.6897 1.6897 1.6897 1.6897 1.6897 1.6897 1.6897 1.6897 1.6897 1.6897 1.6897 1.6897 1.6897 1.6897 1.6897 1.6897 1.6897 1.6897 1.6897 1.6897 1.6897 1.6897 1.6897 1.6897 1.6897 1.6897 1.6897 1.6897 1.6897 1.7414 1.7414 1.7414 1.7414 1.7414 1.7414 1.7414 1.7414 1.7414 1.7414 1.7414 1.7414 1.7414 1.7414 1.7414 1.7414 1.7414 1.7414 1.7414 1.7414 1.7414 1.7414 1.7414 1.7414 1.7414 1.7414 1.7414 1.7414 1.7414 1.7414 1.7414 1.7414 1.7414 1.7414 1.7414 1.7414 1.7414 1.7414 1.7414 1.7414 1.7414 1.7414 1.7414 1.7414 1.7414 1.7414 1.7414 1.7414 1.7414 1.7414 1.7414 1.7414 1.7414 1.7414 1.7414 1.7414 1.7414 1.7414 1.7414 1.7414 1.7414 1.7931 1.7931 1.7931 1.7931 1.7931 1.7931 1.7931 1.7931 1.7931 1.7931 1.7931 1.7931 1.7931 1.7931 1.7931 1.7931 1.7931 1.7931 1.7931 1.7931 1.7931 1.7931 1.7931 1.7931 1.7931 1.7931 1.7931 1.7931 1.7931 1.7931 1.7931 1.7931 1.7931 1.7931 1.7931 1.7931 1.7931 1.7931 1.7931 1.7931 1.7931 1.7931 1.7931 1.7931 1.7931 1.7931 1.7931 1.7931 1.7931 1.7931 1.7931 1.7931 1.7931 1.7931 1.7931 1.7931 1.7931 1.7931 1.7931 1.7931 1.7931 1.8448 1.8448 1.8448 1.8448 1.8448 1.8448 1.8448 1.8448 1.8448 1.8448 1.8448 1.8448 1.8448 1.8448 1.8448 1.8448 1.8448 1.8448 1.8448 1.8448 1.8448 1.8448 1.8448 1.8448 1.8448 1.8448 1.8448 1.8448 1.8448 1.8448 1.8448 1.8448 1.8448 1.8448 1.8448 1.8448 1.8448 1.8448 1.8448 1.8448 1.8448 1.8448 1.8448 1.8448 1.8448 1.8448 1.8448 1.8448 1.8448 1.8448 1.8448 1.8448 1.8448 1.8448 1.8448 1.8448 1.8448 1.8448 1.8448 1.8448 1.8448 1.8966 1.8966 1.8966 1.8966 1.8966 1.8966 1.8966 1.8966 1.8966 1.8966 1.8966 1.8966 1.8966 1.8966 1.8966 1.8966 1.8966 1.8966 1.8966 1.8966 1.8966 1.8966 1.8966 1.8966 1.8966 1.8966 1.8966 1.8966 1.8966 1.8966 1.8966 1.8966 1.8966 1.8966 1.8966 1.8966 1.8966 1.8966 1.8966 1.8966 1.8966 1.8966 1.8966 1.8966 1.8966 1.8966 1.8966 1.8966 1.8966 1.8966 1.8966 1.8966 1.8966 1.8966 1.8966 1.8966 1.8966 1.8966 1.8966 1.8966 1.8966 1.9483 1.9483 1.9483 1.9483 1.9483 1.9483 1.9483 1.9483 1.9483 1.9483 1.9483 1.9483 1.9483 1.9483 1.9483 1.9483 1.9483 1.9483 1.9483 1.9483 1.9483 1.9483 1.9483 1.9483 1.9483 1.9483 1.9483 1.9483 1.9483 1.9483 1.9483 1.9483 1.9483 1.9483 1.9483 1.9483 1.9483 1.9483 1.9483 1.9483 1.9483 1.9483 1.9483 1.9483 1.9483 1.9483 1.9483 1.9483 1.9483 1.9483 1.9483 1.9483 1.9483 1.9483 1.9483 1.9483 1.9483 1.9483 1.9483 1.9483 1.9483 2.0 2.0 2.0 2.0 2.0 2.0 2.0 2.0 2.0 2.0 2.0 2.0 2.0 2.0 2.0 2.0 2.0 2.0 2.0 2.0 2.0 2.0 2.0 2.0 2.0 2.0 2.0 2.0 2.0 2.0 2.0 2.0 2.0 2.0 2.0 2.0 2.0 2.0 2.0 2.0 2.0 2.0 2.0 2.0 2.0 2.0 2.0 2.0 2.0 2.0 2.0 2.0 2.0 2.0 2.0 2.0 2.0 2.0 2.0 2.0 2.0