# vtk DataFile Version 2.0
scalar
ASCII
DATASET UNSTRUCTURED_GRID
POINTS 2695 float
100.0 0.0 0.0
99.7867 0.0 0.031
99.1487 0.0 0.1231
98.0913 0.0 0.274
96.6236 0.0 0.4802
94.7582 0.0 0.7369
92.5109 0.0 1.0382
89.9009 0.0 1.3777
86.9504 0.0 1.7488
83.6848 0.0 2.1441
80.1317 0.0 2.5566
76.3216 0.0 2.9788
72.2869 0.0 3.4034
68.0621 0.0 3.8228
63.6832 0.0 4.2291
59.1875 0.0 4.6141
54.6134 0.0 4.9694
50.0 0.0 5.2861
45.3866 0.0 5.5554
40.8125 0.0 5.7683
36.3168 0.0 5.9163
31.9379 0.0 5.992
27.7131 0.0 5.9889
23.6784 0.0 5.9024
19.8683 0.0 5.7297
16.3152 0.0 5.4701
13.0496 0.0 5.1255
10.0991 0.0 4.6994
7.4891 0.0 4.1975
5.2418 0.0 3.6267
3.3764 0.0 2.9947
1.9087 0.0 2.3093
0.8513 0.0 1.5778
0.2133 0.0 0.8065
0.0 0.0 0.0
0.2133 0.0 -0.8065
0.8513 0.0 -1.5778
1.9087 0.0 -2.3093
3.3764 0.0 -2.9947
5.2418 0.0 -3.6267
7.4891 0.0 -4.1975
10.0991 0.0 -4.6994
13.0496 0.0 -5.1255
16.3152 0.0 -5.4701
19.8683 0.0 -5.7297
23.6784 0.0 -5.9024
27.7131 0.0 -5.9889
31.9379 0.0 -5.992
36.3168 0.0 -5.9163
40.8125 0.0 -5.7683
45.3866 0.0 -5.5554
50.0 0.0 -5.2861
54.6134 0.0 -4.9694
59.1875 0.0 -4.6141
63.6832 0.0 -4.2291
68.0621 0.0 -3.8228
72.2869 0.0 -3.4034
76.3216 0.0 -2.9788
80.1317 0.0 -2.5566
83.6848 0.0 -2.1441
86.9504 0.0 -1.7488
89.9009 0.0 -1.3777
92.5109 0.0 -1.0382
94.7582 0.0 -0.7369
96.6236 0.0 -0.4802
98.0913 0.0 -0.274
99.1487 0.0 -0.1231
99.7867 0.0 -0.031
100.0 0.0 0.0
100.0 8.8235 0.0
99.7867 8.8235 0.031
99.1487 8.8235 0.1231
98.0913 8.8235 0.274
96.6236 8.8235 0.4802
94.7582 8.8235 0.7369
92.5109 8.8235 1.0382
89.9009 8.8235 1.3777
86.9504 8.8235 1.7488
83.6848 8.8235 2.1441
80.1317 8.8235 2.5566
76.3216 8.8235 2.9788
72.2869 8.8235 3.4034
68.0621 8.8235 3.8228
63.6832 8.8235 4.2291
59.1875 8.8235 4.6141
54.6134 8.8235 4.9694
50.0 8.8235 5.2861
45.3866 8.8235 5.5554
40.8125 8.8235 5.7683
36.3168 8.8235 5.9163
31.9379 8.8235 5.992
27.7131 8.8235 5.9889
23.6784 8.8235 5.9024
19.8683 8.8235 5.7297
16.3152 8.8235 5.4701
13.0496 8.8235 5.1255
10.0991 8.8235 4.6994
7.4891 8.8235 4.1975
5.2418 8.8235 3.6267
3.3764 8.8235 2.9947
1.9087 8.8235 2.3093
0.8513 8.8235 1.5778
0.2133 8.8235 0.8065
0.0 8.8235 0.0
0.2133 8.8235 -0.8065
0.8513 8.8235 -1.5778
1.9087 8.8235 -2.3093
3.3764 8.8235 -2.9947
5.2418 8.8235 -3.6267
7.4891 8.8235 -4.1975
10.0991 8.8235 -4.6994
13.0496 8.8235 -5.1255
16.3152 8.8235 -5.4701
19.8683 8.8235 -5.7297
23.6784 8.8235 -5.9024
27.7131 8.8235 -5.9889
31.9379 8.8235 -5.992
36.3168 8.8235 -5.9163
40.8125 8.8235 -5.7683
45.3866 8.8235 -5.5554
50.0 8.8235 -5.2861
54.6134 8.8235 -4.9694
59.1875 8.8235 -4.6141
63.6832 8.8235 -4.2291
68.0621 8.8235 -3.8228
72.2869 8.8235 -3.4034
76.3216 8.8235 -2.9788
80.1317 8.8235 -2.5566
83.6848 8.8235 -2.1441
86.9504 8.8235 -1.7488
89.9009 8.8235 -1.3777
92.5109 8.8235 -1.0382
94.7582 8.8235 -0.7369
96.6236 8.8235 -0.4802
98.0913 8.8235 -0.274
99.1487 8.8235 -0.1231
99.7867 8.8235 -0.031
100.0 8.8235 0.0
100.0 17.6471 0.0
99.7867 17.6471 0.031
99.1487 17.6471 0.1231
98.0913 17.6471 0.274
96.6236 17.6471 0.4802
94.7582 17.6471 0.7369
92.5109 17.6471 1.0382
89.9009 17.6471 1.3777
86.9504 17.6471 1.7488
83.6848 17.6471 2.1441
80.1317 17.6471 2.5566
76.3216 17.6471 2.9788
72.2869 17.6471 3.4034
68.0621 17.6471 3.8228
63.6832 17.6471 4.2291
59.1875 17.6471 4.6141
54.6134 17.6471 4.9694
50.0 17.6471 5.2861
45.3866 17.6471 5.5554
40.8125 17.6471 5.7683
36.3168 17.6471 5.9163
31.9379 17.6471 5.992
27.7131 17.6471 5.9889
23.6784 17.6471 5.9024
19.8683 17.6471 5.7297
16.3152 17.6471 5.4701
13.0496 17.6471 5.1255
10.0991 17.6471 4.6994
7.4891 17.6471 4.1975
5.2418 17.6471 3.6267
3.3764 17.6471 2.9947
1.9087 17.6471 2.3093
0.8513 17.6471 1.5778
0.2133 17.6471 0.8065
0.0 17.6471 0.0
0.2133 17.6471 -0.8065
0.8513 17.6471 -1.5778
1.9087 17.6471 -2.3093
3.3764 17.6471 -2.9947
5.2418 17.6471 -3.6267
7.4891 17.6471 -4.1975
10.0991 17.6471 -4.6994
13.0496 17.6471 -5.1255
16.3152 17.6471 -5.4701
19.8683 17.6471 -5.7297
23.6784 17.6471 -5.9024
27.7131 17.6471 -5.9889
31.9379 17.6471 -5.992
36.3168 17.6471 -5.9163
40.8125 17.6471 -5.7683
45.3866 17.6471 -5.5554
50.0 17.6471 -5.2861
54.6134 17.6471 -4.9694
59.1875 17.6471 -4.6141
63.6832 17.6471 -4.2291
68.0621 17.6471 -3.8228
72.2869 17.6471 -3.4034
76.3216 17.6471 -2.9788
80.1317 17.6471 -2.5566
83.6848 17.6471 -2.1441
86.9504 17.6471 -1.7488
89.9009 17.6471 -1.3777
92.5109 17.6471 -1.0382
94.7582 17.6471 -0.7369
96.6236 17.6471 -0.4802
98.0913 17.6471 -0.274
99.1487 17.6471 -0.1231
99.7867 17.6471 -0.031
100.0 17.6471 0.0
100.0 26.4706 0.0
99.7867 26.4706 0.031
99.1487 26.4706 0.1231
98.0913 26.4706 0.274
96.6236 26.4706 0.4802
94.7582 26.4706 0.7369
92.5109 26.4706 1.0382
89.9009 26.4706 1.3777
86.9504 26.4706 1.7488
83.6848 26.4706 2.1441
80.1317 26.4706 2.5566
76.3216 26.4706 2.9788
72.2869 26.4706 3.4034
68.0621 26.4706 3.8228
63.6832 26.4706 4.2291
59.1875 26.4706 4.6141
54.6134 26.4706 4.9694
50.0 26.4706 5.2861
45.3866 26.4706 5.5554
40.8125 26.4706 5.7683
36.3168 26.4706 5.9163
31.9379 26.4706 5.992
27.7131 26.4706 5.9889
23.6784 26.4706 5.9024
19.8683 26.4706 5.7297
16.3152 26.4706 5.4701
13.0496 26.4706 5.1255
10.0991 26.4706 4.6994
7.4891 26.4706 4.1975
5.2418 26.4706 3.6267
3.3764 26.4706 2.9947
1.9087 26.4706 2.3093
0.8513 26.4706 1.5778
0.2133 26.4706 0.8065
0.0 26.4706 0.0
0.2133 26.4706 -0.8065
0.8513 26.4706 -1.5778
1.9087 26.4706 -2.3093
3.3764 26.4706 -2.9947
5.2418 26.4706 -3.6267
7.4891 26.4706 -4.1975
10.0991 26.4706 -4.6994
13.0496 26.4706 -5.1255
16.3152 26.4706 -5.4701
19.8683 26.4706 -5.7297
23.6784 26.4706 -5.9024
27.7131 26.4706 -5.9889
31.9379 26.4706 -5.992
36.3168 26.4706 -5.9163
40.8125 26.4706 -5.7683
45.3866 26.4706 -5.5554
50.0 26.4706 -5.2861
54.6134 26.4706 -4.9694
59.1875 26.4706 -4.6141
63.6832 26.4706 -4.2291
68.0621 26.4706 -3.8228
72.2869 26.4706 -3.4034
76.3216 26.4706 -2.9788
80.1317 26.4706 -2.5566
83.6848 26.4706 -2.1441
86.9504 26.4706 -1.7488
89.9009 26.4706 -1.3777
92.5109 26.4706 -1.0382
94.7582 26.4706 -0.7369
96.6236 26.4706 -0.4802
98.0913 26.4706 -0.274
99.1487 26.4706 -0.1231
99.7867 26.4706 -0.031
100.0 26.4706 0.0
100.0 35.2941 0.0
99.7867 35.2941 0.031
99.1487 35.2941 0.1231
98.0913 35.2941 0.274
96.6236 35.2941 0.4802
94.7582 35.2941 0.7369
92.5109 35.2941 1.0382
89.9009 35.2941 1.3777
86.9504 35.2941 1.7488
83.6848 35.2941 2.1441
80.1317 35.2941 2.5566
76.3216 35.2941 2.9788
72.2869 35.2941 3.4034
68.0621 35.2941 3.8228
63.6832 35.2941 4.2291
59.1875 35.2941 4.6141
54.6134 35.2941 4.9694
50.0 35.2941 5.2861
45.3866 35.2941 5.5554
40.8125 35.2941 5.7683
36.3168 35.2941 5.9163
31.9379 35.2941 5.992
27.7131 35.2941 5.9889
23.6784 35.2941 5.9024
19.8683 35.2941 5.7297
16.3152 35.2941 5.4701
13.0496 35.2941 5.1255
10.0991 35.2941 4.6994
7.4891 35.2941 4.1975
5.2418 35.2941 3.6267
3.3764 35.2941 2.9947
1.9087 35.2941 2.3093
0.8513 35.2941 1.5778
0.2133 35.2941 0.8065
0.0 35.2941 0.0
0.2133 35.2941 -0.8065
0.8513 35.2941 -1.5778
1.9087 35.2941 -2.3093
3.3764 35.2941 -2.9947
5.2418 35.2941 -3.6267
7.4891 35.2941 -4.1975
10.0991 35.2941 -4.6994
13.0496 35.2941 -5.1255
16.3152 35.2941 -5.4701
19.8683 35.2941 -5.7297
23.6784 35.2941 -5.9024
27.7131 35.2941 -5.9889
31.9379 35.2941 -5.992
36.3168 35.2941 -5.9163
40.8125 35.2941 -5.7683
45.3866 35.2941 -5.5554
50.0 35.2941 -5.2861
54.6134 35.2941 -4.9694
59.1875 35.2941 -4.6141
63.6832 35.2941 -4.2291
68.0621 35.2941 -3.8228
72.2869 35.2941 -3.4034
76.3216 35.2941 -2.9788
80.1317 35.2941 -2.5566
83.6848 35.2941 -2.1441
86.9504 35.2941 -1.7488
89.9009 35.2941 -1.3777
92.5109 35.2941 -1.0382
94.7582 35.2941 -0.7369
96.6236 35.2941 -0.4802
98.0913 35.2941 -0.274
99.1487 35.2941 -0.1231
99.7867 35.2941 -0.031
100.0 35.2941 0.0
100.0 44.1176 0.0
99.7867 44.1176 0.031
99.1487 44.1176 0.1231
98.0913 44.1176 0.274
96.6236 44.1176 0.4802
94.7582 44.1176 0.7369
92.5109 44.1176 1.0382
89.9009 44.1176 1.3777
86.9504 44.1176 1.7488
83.6848 44.1176 2.1441
80.1317 44.1176 2.5566
76.3216 44.1176 2.9788
72.2869 44.1176 3.4034
68.0621 44.1176 3.8228
63.6832 44.1176 4.2291
59.1875 44.1176 4.6141
54.6134 44.1176 4.9694
50.0 44.1176 5.2861
45.3866 44.1176 5.5554
40.8125 44.1176 5.7683
36.3168 44.1176 5.9163
31.9379 44.1176 5.992
27.7131 44.1176 5.9889
23.6784 44.1176 5.9024
19.8683 44.1176 5.7297
16.3152 44.1176 5.4701
13.0496 44.1176 5.1255
10.0991 44.1176 4.6994
7.4891 44.1176 4.1975
5.2418 44.1176 3.6267
3.3764 44.1176 2.9947
1.9087 44.1176 2.3093
0.8513 44.1176 1.5778
0.2133 44.1176 0.8065
0.0 44.1176 0.0
0.2133 44.1176 -0.8065
0.8513 44.1176 -1.5778
1.9087 44.1176 -2.3093
3.3764 44.1176 -2.9947
5.2418 44.1176 -3.6267
7.4891 44.1176 -4.1975
10.0991 44.1176 -4.6994
13.0496 44.1176 -5.1255
16.3152 44.1176 -5.4701
19.8683 44.1176 -5.7297
23.6784 44.1176 -5.9024
27.7131 44.1176 -5.9889
31.9379 44.1176 -5.992
36.3168 44.1176 -5.9163
40.8125 44.1176 -5.7683
45.3866 44.1176 -5.5554
50.0 44.1176 -5.2861
54.6134 44.1176 -4.9694
59.1875 44.1176 -4.6141
63.6832 44.1176 -4.2291
68.0621 44.1176 -3.8228
72.2869 44.1176 -3.4034
76.3216 44.1176 -2.9788
80.1317 44.1176 -2.5566
83.6848 44.1176 -2.1441
86.9504 44.1176 -1.7488
89.9009 44.1176 -1.3777
92.5109 44.1176 -1.0382
94.7582 44.1176 -0.7369
96.6236 44.1176 -0.4802
98.0913 44.1176 -0.274
99.1487 44.1176 -0.1231
99.7867 44.1176 -0.031
100.0 44.1176 0.0
100.0 52.9412 0.0
99.7867 52.9412 0.031
99.1487 52.9412 0.1231
98.0913 52.9412 0.274
96.6236 52.9412 0.4802
94.7582 52.9412 0.7369
92.5109 52.9412 1.0382
89.9009 52.9412 1.3777
86.9504 52.9412 1.7488
83.6848 52.9412 2.1441
80.1317 52.9412 2.5566
76.3216 52.9412 2.9788
72.2869 52.9412 3.4034
68.0621 52.9412 3.8228
63.6832 52.9412 4.2291
[...]
POINT_DATA 2695
SCALARS cp1 float
LOOKUP_TABLE default
0.436626
0.364791
0.269922
0.218358
0.178623
0.145744
0.118044
0.0942617
0.0735752
0.0554976
0.0395158
0.025346
0.0126449
0.00110675
-0.00931857
-0.0186491
-0.0268257
-0.0336354
-0.0386773
-0.0412765
-0.0406401
-0.0358304
-0.0255959
-0.00849484
0.017314
0.0540898
0.104568
0.172553
0.263477
0.385588
0.552637
0.789232
1.09652
1.054
-0.191731
-1.73602
-2.12285
-1.85827
-1.59199
-1.39492
-1.24164
-1.11645
-1.0102
-0.917194
-0.833713
-0.75722
-0.686442
-0.620524
-0.558864
-0.501189
-0.447121
-0.396492
-0.349109
-0.30457
-0.262524
-0.222506
-0.184025
-0.146617
-0.109713
-0.0727838
-0.0352106
0.00361085
0.044217
0.087619
0.135043
0.188142
0.25164
0.356512
0.432837
0.436604
0.37388
0.284798
0.226163
0.183125
0.148685
0.120098
0.0957668
0.0747244
0.0563765
0.0402007
0.0258682
0.0130384
0.00142869
-0.00904049
-0.0183864
-0.0265354
-0.0332645
-0.0381611
-0.0405648
-0.0396732
-0.0345178
-0.0238415
-0.00615423
0.0204284
0.0582524
0.110261
0.180551
0.274933
0.401657
0.571313
0.789249
0.999108
0.845847
-0.230522
-1.53364
-1.96927
-1.83136
-1.60466
-1.41055
-1.25388
-1.12531
-1.01653
-0.921751
-0.837044
-0.759762
-0.688441
-0.622132
-0.560192
-0.502278
-0.448026
-0.397228
-0.34966
-0.304941
-0.262703
-0.222485
-0.183798
-0.146159
-0.109006
-0.0717831
-0.0338663
0.00538653
0.0466393
0.0910139
0.140093
0.196574
0.267189
0.365927
0.432798
0.436598
0.370185
0.280243
0.223665
0.181641
0.147691
0.119384
0.0952243
0.0742919
0.0560236
0.0399007
0.0256111
0.0128122
0.0012163
-0.009249
-0.0186023
-0.0267728
-0.0335416
-0.0385006
-0.0409846
-0.0401959
-0.0351766
-0.0246733
-0.00721314
0.0190722
0.0565013
0.107955
0.177453
0.270708
0.395989
0.564895
0.788735
1.0297
0.917561
-0.214442
-1.60017
-2.01461
-1.83721
-1.59931
-1.40491
-1.2496
-1.12222
-1.01425
-0.920033
-0.835709
-0.758678
-0.687539
-0.621368
-0.559532
-0.501711
-0.447533
-0.396806
-0.349314
-0.304668
-0.262506
-0.222367
-0.183759
-0.146208
-0.109148
-0.0720334
-0.0342394
0.0048645
0.0459005
0.0899541
0.138498
0.193919
0.26243
0.3621
0.432783
0.436607
0.370188
0.280237
0.223649
0.181612
0.14765
0.119332
0.0951595
0.074215
0.0559342
0.0397987
0.0254963
0.012684
0.00107427
-0.00940531
-0.0187734
-0.0269592
-0.0337439
-0.0387195
-0.0412206
-0.0404491
-0.0354466
-0.0249589
-0.00751161
0.0187654
0.0561903
0.107639
0.177113
0.270304
0.39547
0.564256
0.788104
1.02935
0.918134
-0.212604
-1.59798
-2.01294
-1.83596
-1.59813
-1.4037
-1.24844
-1.12118
-1.01337
-0.919292
-0.835079
-0.758132
-0.687057
-0.620936
-0.559141
-0.501355
-0.447208
-0.396508
-0.349042
-0.30442
-0.26228
-0.222162
-0.183574
-0.146043
-0.109002
-0.0719054
-0.0341288
0.00495823
0.0459781
0.0900165
0.138547
0.193956
0.262455
0.362115
0.432795
0.436613
0.370188
0.280226
0.223625
0.181573
0.147595
0.119259
0.0950694
0.0741067
0.0558074
0.0396529
0.0253311
0.0124989
0.000868913
-0.00963153
-0.0190212
-0.0272294
-0.0340374
-0.0390374
-0.0415643
-0.0408199
-0.0358466
-0.0253902
-0.00797761
0.0182604
0.0556409
0.107039
0.176458
0.269593
0.394708
0.563464
0.787365
1.02898
0.919049
-0.209576
-1.59398
-2.00954
-1.83341
-1.59617
-1.40213
-1.24715
-1.12007
-1.0124
-0.918425
-0.8343
-0.757427
-0.686417
-0.620352
-0.558608
-0.500867
-0.446761
-0.396098
-0.348666
-0.304077
-0.261968
-0.221879
-0.183319
-0.145814
-0.108799
-0.071727
-0.033974
0.00509037
0.0460885
0.0901061
0.138617
0.194008
0.26249
0.362134
0.432806
0.436621
0.370189
0.280212
0.223593
0.181522
0.147523
0.119165
0.0949526
0.0739663
0.0556429
0.0394637
0.0251167
0.0122587
0.000602243
-0.00992537
-0.0193431
-0.0275803
-0.0344187
-0.0394506
-0.042011
-0.0413024
-0.0363673
-0.0259523
-0.00858473
0.0176036
0.0549293
0.106266
0.175619
0.268683
0.393729
0.562443
0.786409
1.02849
0.920208
-0.205701
-1.58885
-2.00517
-1.83012
-1.59363
-1.40009
-1.24545
-1.11862
-1.01113
-0.917297
-0.833289
-0.756514
-0.685588
-0.619596
-0.557916
-0.500233
-0.44618
-0.395565
-0.348178
-0.303631
-0.261562
-0.221511
-0.182987
-0.145517
-0.108535
-0.071495
-0.0337727
0.00526203
0.0462319
0.0902226
0.138708
0.194075
0.262535
0.362158
0.432821
0.43663
0.37019
0.280195
0.223554
0.181458
0.147433
0.119049
0.0948079
0.0737925
0.0554392
0.0392295
0.0248512
0.0119613
0.00027214
-0.0102891
-0.0197415
-0.0280147
-0.0348906
-0.0399619
-0.0425639
-0.0418995
-0.0370118
-0.026648
-0.00933619
0.016791
0.0540493
0.105312
0.174582
0.267559
0.392521
0.561182
0.785226
1.02789
0.921631
-0.200927
-1.58252
-1.99979
-1.82607
-1.59051
-1.39757
-1.24334
-1.11682
-1.00955
-0.915904
-0.832041
-0.755387
-0.684563
-0.618661
-0.55706
-0.499448
-0.44546
-0.394906
-0.347574
-0.303079
-0.261059
-0.221055
-0.182576
-0.145149
-0.108208
-0.0712074
-0.0335234
0.00547475
0.0464096
0.0903669
0.13882
0.194158
0.26259
0.362188
0.432838
0.436641
0.370191
0.280175
0.223507
0.181382
0.147326
0.118909
0.0946341
0.0735837
0.0551945
0.0389483
0.0245326
0.0116043
-0.000124009
-0.0107255
-0.0202194
-0.0285358
-0.0354566
-0.040575
-0.0432269
-0.0426155
-0.0377845
-0.0274819
-0.0102367
0.0158175
0.0529953
0.104169
0.173341
0.266213
0.391074
0.559671
0.783808
1.02716
0.923323
-0.19523
-1.57496
-1.99336
-1.82123
-1.58677
-1.39456
-1.24083
-1.11466
-1.00767
-0.914235
-0.830545
-0.754035
-0.683334
-0.617538
-0.556032
-0.498506
-0.444595
-0.394113
-0.346848
-0.302416
-0.260455
-0.220507
-0.182081
-0.144706
-0.107815
-0.0708617
-0.0332236
0.00573046
0.0466232
0.0905403
0.138956
0.194257
0.262656
0.362225
0.432858
0.436654
0.370192
0.28015
0.223452
0.181292
0.1472
0.118744
0.0944296
0.0733382
0.0549069
0.0386178
0.0241581
0.0111849
-0.000589401
-0.0112381
-0.0207807
-0.0291476
-0.0361209
-0.0412946
-0.0440048
-0.0434554
-0.0386907
-0.0284597
-0.0112923
0.0146766
0.0517603
0.10283
0.171887
0.264637
0.389379
0.557901
0.782145
1.0263
0.925289
-0.18858
-1.56612
-1.98584
-1.81556
-1.58239
-1.39103
-1.23788
-1.11213
-1.00547
-0.912278
-0.82879
-0.752448
-0.68189
-0.61622
-0.554824
-0.497397
-0.443578
-0.39318
-0.345993
-0.301634
-0.259743
-0.219861
-0.181499
-0.144184
-0.107352
-0.0704547
-0.0328706
0.00603149
0.0468746
0.0907443
0.139115
0.194375
0.262734
0.362267
0.432882
0.436668
0.370193
0.280122
0.223387
0.181188
0.147053
0.118553
0.0941926
0.0730537
0.0545738
0.038235
0.0237245
0.0106995
-0.00112788
-0.011831
-0.0214298
-0.0298549
-0.0368888
-0.0421261
-0.0449034
-0.0444253
-0.039737
-0.0295883
-0.0125105
0.0133603
0.0503358
0.101285
0.170211
0.262819
0.387424
0.555858
0.780223
1.0253
0.927534
-0.180945
-1.55597
-1.97719
-1.80904
-1.57735
-1.38696
-1.23448
-1.10922
-1.00292
-0.910017
-0.826761
-0.750613
-0.68022
-0.614693
-0.553426
-0.496114
-0.4424
-0.392098
-0.345002
-0.300728
-0.258917
-0.219112
-0.180823
-0.143579
-0.106814
-0.0699823
-0.0324611
0.00638063
0.047166
0.0909807
0.139299
0.19451
0.262825
0.362316
0.432909
0.436684
0.370193
0.280088
0.223313
0.181069
0.146885
0.118334
0.0939208
0.0727276
0.0541921
0.0377965
0.0232281
0.0101439
-0.00174399
-0.0125092
-0.022172
-0.0306633
-0.0377663
-0.0430759
-0.0459296
-0.0455326
-0.0409312
-0.030876
-0.0139
0.0118592
0.0487116
0.0995245
0.1683
0.260747
0.385195
0.553528
0.778027
1.02414
0.930067
-0.172283
-1.54443
-1.96736
-1.80161
-1.57161
-1.38232
-1.23061
-1.1059
-1.00001
-0.907436
-0.824444
-0.748515
-0.67831
-0.612946
-0.551824
-0.494643
-0.441048
-0.390857
-0.343864
-0.299688
-0.257969
-0.218252
-0.180047
-0.142884
-0.106197
-0.0694403
-0.0319912
0.00678117
0.0475002
0.0912517
0.13951
0.194665
0.262927
0.362371
0.43294
0.436702
0.370194
0.28005
0.223228
0.180932
0.146693
0.118085
0.0936116
0.0723568
0.0537582
0.0372984
0.0226644
0.00951317
-0.00244309
-0.0132784
-0.0230135
-0.0315796
-0.0387604
-0.0441517
-0.0470915
-0.0467859
-0.0422822
-0.0323324
-0.0154711
0.0101624
0.0468762
0.0975353
0.166141
0.258406
0.382676
0.550894
0.775541
1.02282
0.932892
-0.16255
-1.53144
-1.95627
-1.79325
-1.56513
-1.37709
-1.22623
-1.10214
-0.996721
-0.904513
-0.821818
-0.746136
-0.676142
-0.610963
-0.550004
-0.492971
-0.439512
-0.389446
-0.34257
-0.298504
-0.25689
-0.217272
-0.179164
-0.142093
-0.105495
-0.068823
-0.0314562
0.007237
0.0478805
0.0915598
0.13975
0.194841
0.263044
0.362433
0.432974
0.436721
0.370193
0.280006
0.223131
0.180777
0.146476
0.117802
0.0932618
0.0719376
0.053268
0.0367359
0.0220281
0.0088016
-0.00323147
-0.0141455
-0.0239616
-0.0326116
-0.0398796
-0.0453622
-0.0483983
-0.048195
-0.0438007
-0.0339689
-0.0172358
0.00825714
0.0448156
0.0953025
0.163718
0.255779
0.379849
0.547934
0.772742
1.02132
0.93602
-0.151694
-1.51693
-1.94387
-1.78388
-1.55788
-1.37122
-1.22132
-1.09792
-0.993023
-0.901225
-0.818861
-0.743455
-0.673697
-0.608724
-0.547948
-0.491081
-0.437774
-0.387849
-0.341105
-0.297163
-0.255668
-0.216163
-0.178163
-0.141196
-0.104699
-0.0681242
-0.0308508
0.00775266
0.0483103
0.0919078
0.140021
0.195039
0.263175
0.362503
0.433011
0.436742
0.370191
0.279956
0.223021
0.180601
0.146231
0.117484
0.0928675
0.0714655
0.0527164
0.0361033
0.021313
0.0080024
-0.00411645
-0.0151183
-0.0250247
-0.0337682
-0.0411333
-0.0467176
-0.049861
-0.0497714
-0.0454989
-0.0357982
-0.0192078
0.00612866
0.0425143
0.0928094
0.161013
0.252845
0.376691
0.544626
0.769608
1.01962
0.939458
-0.139654
-1.5008
-1.93008
-1.77344
-1.54979
-1.36467
-1.21583
-1.0932
-0.988887
-0.897543
-0.815546
-0.740448
-0.670952
-0.606208
-0.545637
-0.488954
-0.435817
-0.38605
-0.339453
-0.295652
-0.25429
-0.214912
-0.177034
-0.140185
-0.103802
-0.0673364
-0.0301686
0.00833341
0.0487941
0.0922992
0.140325
0.195261
0.26332
0.362579
0.433052
0.436764
0.370188
0.279897
0.222897
0.180403
0.145954
0.117125
0.0924243
0.0709353
0.0520974
0.0353942
0.0205119
0.00710766
-0.00510657
-0.016206
-0.0262127
-0.0350599
-0.0425327
-0.0482298
-0.051492
-0.0515285
-0.0473907
-0.0378354
-0.021403
0.00376002
0.0399541
0.0900363
0.158004
0.249583
0.373178
0.540943
0.76611
1.01769
0.943214
-0.126364
-1.48295
-1.91479
-1.76186
-1.54081
-1.3574
-1.20973
-1.08795
-0.984276
-0.893434
-0.811844
-0.737085
-0.66788
-0.603389
-0.543045
-0.486568
-0.43362
-0.384028
-0.337597
-0.293952
-0.252739
-0.213505
-0.175765
-0.139049
-0.102793
-0.066451
-0.0294022
0.00898537
0.0493367
0.0927376
0.140664
0.195508
0.263482
0.362663
0.433095
0.436786
0.370182
0.27983
0.222755
0.180179
0.145642
0.116722
0.0919268
0.0703409
0.0514042
0.0346006
0.0196161
0.0061081
-0.00621183
-0.0174192
-0.027537
-0.0364988
-0.0440906
-0.0499123
-0.0533057
-0.0534814
-0.0494925
-0.0400976
-0.0238398
0.00113171
0.0371141
0.0869608
0.154668
0.245964
0.36928
0.536852
0.762216
1.01552
0.947298
-0.111748
-1.46326
-1.8979
-1.74907
-1.53087
-1.34933
-1.20296
-1.08212
-0.979149
-0.88886
-0.807718
-0.733333
-0.664448
-0.600238
-0.540144
-0.483895
-0.431156
-0.381761
-0.335514
-0.292045
-0.250999
-0.211925
-0.174339
-0.137773
-0.101661
-0.0654579
-0.0285431
0.00971563
0.0499438
0.0932274
0.141043
0.195783
0.263661
0.362754
0.43314
0.436809
0.370173
0.279752
0.222593
0.179925
0.145291
0.116268
0.0913683
0.0696746
0.0506281
0.0337133
0.0186157
0.00499281
-0.00744391
-0.0187706
-0.0290107
-0.0380989
-0.0458219
-0.0517807
-0.0553187
-0.0556476
-0.0518227
-0.0426045
-0.0265391
-0.00177873
0.03397
0.0835568
0.150975
0.241959
0.364964
0.532319
0.757888
1.01307
0.951719
-0.0957199
-1.44161
-1.8793
-1.73495
-1.51989
-1.34042
-1.19547
-1.07565
-0.973458
-0.883776
-0.803126
-0.729152
-0.660618
-0.596717
-0.5369
-0.480903
-0.428397
-0.37922
-0.333179
-0.289905
-0.249046
-0.210152
-0.17274
-0.136341
-0.100392
-0.0643451
-0.0275813
0.0105324
0.0506219
0.0937734
0.141464
0.196087
0.263857
0.362851
0.433187
0.43683
0.370158
0.27966
0.222408
0.179637
0.144894
0.115758
0.0907408
0.0689275
0.0497593
0.0327212
0.0174987
0.00374898
-0.00881647
-0.0202744
-0.0306492
-0.0398763
-0.0477434
-0.053853
-0.0575498
-0.0580472
-0.0544025
-0.0453787
-0.0295249
-0.00499705
0.0304944
0.0797945
0.146894
0.237532
0.360191
0.5273
0.753083
1.01031
0.956486
-0.0781827
-1.41784
-1.85884
-1.71939
-1.50778
-1.33057
-1.18718
-1.06849
-0.967146
-0.878129
-0.798018
-0.724494
-0.656347
-0.592785
-0.533273
-0.477554
-0.425306
-0.376371
-0.330559
-0.287503
-0.246855
-0.208163
-0.170946
-0.134736
-0.0989692
-0.0630989
-0.0265052
0.0114449
0.0513783
0.0943811
0.141932
0.196423
0.264071
0.362955
0.433233
0.436848
0.370136
0.279551
0.222195
0.179309
0.144444
0.115182
0.0900346
0.0680884
0.0487855
0.0316112
0.0162507
0.00236139
-0.0103456
-0.0219477
-0.0324703
-0.0418497
-0.0498748
-0.0561498
-0.0600208
-0.0607032
-0.0572565
-0.0484462
-0.0328251
-0.00855293
0.0266553
0.0756394
0.142387
0.232642
0.354916
0.521746
0.747748
1.0072
0.961606
-0.0590274
-1.39178
-1.83636
-1.70228
-1.49443
-1.3197
-1.17802
-1.06056
-0.960145
-0.871856
-0.792334
-0.719303
-0.65158
-0.588391
-0.529214
-0.473802
-0.421841
-0.373174
-0.327617
-0.284807
-0.244393
-0.205929
-0.168932
-0.132935
-0.0973743
-0.061703
-0.0253014
0.0124641
0.0522212
0.0950564
0.142449
0.196792
0.264303
0.363063
0.433277
0.43686
0.370103
0.279421
0.221947
0.178933
0.143932
0.114529
0.0892372
0.0671436
0.0476915
0.0303669
0.0148546
0.000811833
-0.0120504
-0.0238104
-0.0344946
-0.0440407
-0.0522388
-0.0586947
-0.0627567
-0.0636419
-0.0604124
-0.0518368
-0.0364715
-0.0124807
0.0224156
0.0710514
0.137411
0.227242
0.349087
0.5156
0.741823
1.00368
0.967086
-0.0381297
-1.36323
-1.81168
-1.68345
-1.47972
-1.3077
-1.16789
-1.05178
-0.952377
-0.864882
-0.786005
-0.713512
-0.646252
-0.583473
-0.524665
-0.469593
-0.417949
-0.369582
-0.32431
-0.281774
-0.241625
-0.203416
-0.166668
-0.130912
-0.0955845
-0.0601386
-0.0239544
0.0136022
0.05316
0.0958057
0.143019
0.197196
0.264553
0.363172
0.433315
0.436864
0.370055
0.279263
0.221657
0.178499
0.143346
0.113785
0.0883329
0.0660759
0.0464589
0.0289686
0.0132894
-0.000921505
-0.0139535
-0.0258859
-0.0367465
-0.0464743
-0.0548611
-0.0615148
-0.0657857
-0.0668932
-0.0639022
-0.0555845
-0.0405007
-0.0168197
0.0177328
0.0659841
0.131914
0.221275
0.342642
0.508794
0.735237
0.999687
0.972931
-0.0153492
-1.33196
-1.78458
-1.66274
-1.46351
-1.29446
-1.15668
-1.04204
-0.943747
-0.857119
-0.778944
-0.70704
-0.640287
-0.577957
-0.519556
-0.464859
-0.413567
-0.365534
-0.320582
-0.278354
-0.238504
-0.200585
-0.164118
-0.128635
-0.0935732
-0.0583833
-0.0224463
0.0148731
0.0542047
0.0966356
0.143647
0.197634
0.264818
0.36328
0.433342
0.436853
0.369985
0.279068
0.221313
0.177993
0.142669
0.112933
0.0873014
0.0648632
0.045064
0.0273914
0.0115292
-0.00286526
-0.0160821
-0.0282019
-0.039254
-0.0491794
-0.0577714
-0.0646408
-0.06914
-0.0704911
-0.0677622
-0.0597283
-0.0449547
-0.0216156
0.0125569
0.0603831
0.125837
0.214676
0.335509
0.501248
0.727904
0.995155
0.979142
0.00947429
-1.2977
-1.7548
-1.63993
-1.44562
-1.27981
-1.14425
-1.03122
-0.934141
-0.848458
-0.771049
-0.699788
-0.63359
-0.571753
-0.5138
-0.459519
-0.408619
-0.360959
-0.316367
-0.274488
-0.234976
-0.197386
-0.161239
-0.126069
-0.0913089
-0.0564114
-0.0207563
0.0162925
0.0553664
0.0975528
0.144334
0.198107
0.265094
0.363378
0.43335
0.436819
0.369882
0.278823
0.220899
0.177396
0.14188
0.111947
0.0861159
0.0634765
0.0434763
0.0256036
0.00954174
-0.00505231
-0.0184693
-0.0307915
-0.0420503
-0.0521891
-0.0610036
-0.0681074
-0.072856
-0.0744741
-0.0720333
-0.0643125
-0.049882
-0.0269215
0.00682999
0.0541844
0.11911
0.207366
0.327599
0.492866
0.71972
0.98999
0.985716
0.0365253
-1.26015
-1.72206
-1.61479
-1.42586
-1.26358
-1.13046
-1.01919
-0.923421
-0.838768
-0.762194
-0.691634
-0.626044
-0.564748
-0.50729
-0.45347
-0.403008
-0.355769
-0.311583
-0.270099
-0.230973
-0.193759
-0.15798
-0.123167
-0.0887543
-0.0541924
-0.018861
0.0178776
0.0566563
0.0985631
0.145082
0.198611
0.265374
0.363457
0.433328
0.43675
0.369732
0.278509
0.220392
0.17668
0.140948
0.110794
0.0847398
0.0618772
0.0416554
0.023564
0.00728527
-0.00752397
-0.0211557
-0.0336944
-0.0451743
-0.0555419
-0.0645957
-0.0719534
-0.0769736
-0.0788845
-0.0767615
-0.0693876
-0.055338
-0.0327988
0.00048366
0.0473121
0.111647
0.199252
0.318809
0.48353
0.71056
0.98408
0.992643
0.066018
-1.21894
-1.68599
-1.58702
-1.40397
-1.24556
-1.11511
-1.00574
-0.911415
-0.827885
-0.752221
-0.682426
-0.617502
-0.556801
-0.499892
-0.446587
-0.396617
-0.349853
-0.306128
-0.265096
-0.226412
-0.189631
-0.154275
-0.119876
-0.0858649
-0.0516911
-0.0167337
0.0196468
0.0580852
0.0996703
0.145887
0.199137
0.265645
0.3635
0.433257
0.436626
0.369513
0.278097
0.219757
0.175808
0.13983
0.109425
0.0831218
0.0600116
0.0395465
0.0212171
0.00470525
-0.0103332
-0.024192
-0.0369587
-0.0486715
-0.0592809
-0.0685898
-0.0762205
-0.081536
-0.0837684
-0.0819971
-0.0750093
-0.0613858
-0.0393188
-0.00656252
0.0396756
0.103348
0.190218
0.30901
0.473098
0.700269
0.977281
0.999904
0.0982034
-1.17362
-1.64617
-1.55626
-1.37966
-1.22549
-1.09794
-0.990672
-0.897912
-0.815604
-0.740932
-0.671973
-0.607779
-0.547737
-0.491437
-0.438709
-0.389294
-0.34307
-0.299875
-0.259362
-0.22119
-0.184911
-0.150049
-0.116131
-0.0825879
-0.0488667
-0.0143449
0.0216187
0.0596618
0.100874
0.146742
0.19967
0.265884
0.363479
0.433109
0.436417
0.369187
0.277544
0.218944
0.17472
0.13846
0.107772
0.0811881
0.0578031
0.0370718
0.0184864
0.00172757
-0.0135502
-0.0276432
-0.0406436
-0.0525954
-0.063455
-0.073031
-0.0809525
-0.0865876
-0.0891731
-0.087793
-0.0812388
-0.0680965
-0.0465643
-0.0144045
0.0311646
0.0940852
0.180123
0.29804
0.461388
0.688648
0.969413
1.00746
0.133381
-1.12366
-1.60208
-1.52209
-1.35255
-1.20304
-1.07868
-0.973689
-0.882638
-0.801663
-0.728072
-0.660029
-0.596637
-0.537324
-0.481707
-0.42963
-0.380848
-0.335244
-0.29266
-0.252752
-0.215177
-0.179488
-0.145204
-0.111852
-0.0788604
-0.045672
-0.011663
0.0238108
0.0613901
0.102166
0.147627
0.20018
0.266055
0.363351
0.43284
0.436077
0.3687
0.276781
0.217874
0.173328
0.13674
0.105728
0.0788273
0.0551378
0.0341178
0.0152615
-0.00175207
-0.0172704
-0.0315943
-0.0448231
-0.0570088
-0.0681171
-0.0779651
-0.0861905
-0.0921691
-0.0951431
-0.0942015
-0.0881397
-0.0755484
-0.054631
-0.0231574
0.021643
0.0837018
0.168784
0.285693
0.448166
0.675441
0.960235
1.01527
0.171921
-1.06839
-1.55307
-1.48395
-1.32218
-1.17778
-1.05691
-0.954424
-0.865239
-0.785717
-0.713307
-0.646267
-0.583764
-0.525265
-0.470417
-0.419084
-0.371031
-0.326148
-0.284279
-0.245081
-0.208211
-0.173218
-0.139621
-0.106943
-0.0746074
-0.0420539
-0.00865553