# vtk DataFile Version 2.0
scalar
ASCII
DATASET UNSTRUCTURED_GRID
POINTS 3668 float
80.0 22.0 3.85
79.8307 22.0 3.8819
79.3243 22.0 3.9769
78.4848 22.0 4.1325
77.319 22.0 4.3445
75.8364 22.0 4.6077
74.049 22.0 4.9154
71.9715 22.0 5.2604
69.6211 22.0 5.6346
67.0171 22.0 6.0296
64.1813 22.0 6.4369
61.1374 22.0 6.8479
57.9109 22.0 7.2542
54.5291 22.0 7.6473
51.0207 22.0 8.0191
47.4155 22.0 8.3617
43.7445 22.0 8.6676
40.0392 22.0 8.9294
36.3314 22.0 9.1406
32.6535 22.0 9.2952
29.0172 22.0 9.3805
25.4698 22.0 9.3789
22.0479 22.0 9.2898
18.7823 22.0 9.1153
15.7026 22.0 8.8597
12.8366 22.0 8.5294
10.2099 22.0 8.1329
7.8458 22.0 7.6802
5.7646 22.0 7.1822
3.9842 22.0 6.6506
2.5191 22.0 6.0968
1.381 22.0 5.5316
0.5786 22.0 4.9642
0.1174 22.0 4.402
0.0 22.0 3.85
0.2238 22.0 3.332
0.7835 22.0 2.8705
1.6729 22.0 2.4665
2.8831 22.0 2.1206
4.4028 22.0 1.8332
6.218 22.0 1.6039
8.3129 22.0 1.4317
10.6693 22.0 1.3144
13.2677 22.0 1.2486
16.0866 22.0 1.2298
19.1031 22.0 1.2519
22.2931 22.0 1.3083
25.6308 22.0 1.3911
29.0898 22.0 1.4924
32.6465 22.0 1.6042
36.2871 22.0 1.7336
39.9608 22.0 1.8817
43.6369 22.0 2.0426
47.2844 22.0 2.211
50.8724 22.0 2.3823
54.3702 22.0 2.5527
57.7482 22.0 2.7192
60.9772 22.0 2.8794
64.0295 22.0 3.0315
66.8785 22.0 3.1741
69.4996 22.0 3.306
71.8698 22.0 3.4262
73.9684 22.0 3.5336
75.7767 22.0 3.627
77.2788 22.0 3.7055
78.4613 22.0 3.7679
79.3135 22.0 3.8132
79.828 22.0 3.8408
80.0 22.0 3.85
80.0 27.2941 3.85
79.8307 27.2941 3.8819
79.3243 27.2941 3.9769
78.4848 27.2941 4.1325
77.319 27.2941 4.3445
75.8364 27.2941 4.6077
74.049 27.2941 4.9154
71.9715 27.2941 5.2604
69.6211 27.2941 5.6346
67.0171 27.2941 6.0296
64.1813 27.2941 6.4369
61.1374 27.2941 6.8479
57.9109 27.2941 7.2542
54.5291 27.2941 7.6473
51.0207 27.2941 8.0191
47.4155 27.2941 8.3617
43.7445 27.2941 8.6676
40.0392 27.2941 8.9294
36.3314 27.2941 9.1406
32.6535 27.2941 9.2952
29.0172 27.2941 9.3805
25.4698 27.2941 9.3789
22.0479 27.2941 9.2898
18.7823 27.2941 9.1153
15.7026 27.2941 8.8597
12.8366 27.2941 8.5294
10.2099 27.2941 8.1329
7.8458 27.2941 7.6802
5.7646 27.2941 7.1822
3.9842 27.2941 6.6506
2.5191 27.2941 6.0968
1.381 27.2941 5.5316
0.5786 27.2941 4.9642
0.1174 27.2941 4.402
0.0 27.2941 3.85
0.2238 27.2941 3.332
0.7835 27.2941 2.8705
1.6729 27.2941 2.4665
2.8831 27.2941 2.1206
4.4028 27.2941 1.8332
6.218 27.2941 1.6039
8.3129 27.2941 1.4317
10.6693 27.2941 1.3144
13.2677 27.2941 1.2486
16.0866 27.2941 1.2298
19.1031 27.2941 1.2519
22.2931 27.2941 1.3083
25.6308 27.2941 1.3911
29.0898 27.2941 1.4924
32.6465 27.2941 1.6042
36.2871 27.2941 1.7336
39.9608 27.2941 1.8817
43.6369 27.2941 2.0426
47.2844 27.2941 2.211
50.8724 27.2941 2.3823
54.3702 27.2941 2.5527
57.7482 27.2941 2.7192
60.9772 27.2941 2.8794
64.0295 27.2941 3.0315
66.8785 27.2941 3.1741
69.4996 27.2941 3.306
71.8698 27.2941 3.4262
73.9684 27.2941 3.5336
75.7767 27.2941 3.627
77.2788 27.2941 3.7055
78.4613 27.2941 3.7679
79.3135 27.2941 3.8132
79.828 27.2941 3.8408
80.0 27.2941 3.85
80.0 32.5882 3.85
79.8307 32.5882 3.8819
79.3243 32.5882 3.9769
78.4848 32.5882 4.1325
77.319 32.5882 4.3445
75.8364 32.5882 4.6077
74.049 32.5882 4.9154
71.9715 32.5882 5.2604
69.6211 32.5882 5.6346
67.0171 32.5882 6.0296
64.1813 32.5882 6.4369
61.1374 32.5882 6.8479
57.9109 32.5882 7.2542
54.5291 32.5882 7.6473
51.0207 32.5882 8.0191
47.4155 32.5882 8.3617
43.7445 32.5882 8.6676
40.0392 32.5882 8.9294
36.3314 32.5882 9.1406
32.6535 32.5882 9.2952
29.0172 32.5882 9.3805
25.4698 32.5882 9.3789
22.0479 32.5882 9.2898
18.7823 32.5882 9.1153
15.7026 32.5882 8.8597
12.8366 32.5882 8.5294
10.2099 32.5882 8.1329
7.8458 32.5882 7.6802
5.7646 32.5882 7.1822
3.9842 32.5882 6.6506
2.5191 32.5882 6.0968
1.381 32.5882 5.5316
0.5786 32.5882 4.9642
0.1174 32.5882 4.402
0.0 32.5882 3.85
0.2238 32.5882 3.332
0.7835 32.5882 2.8705
1.6729 32.5882 2.4665
2.8831 32.5882 2.1206
4.4028 32.5882 1.8332
6.218 32.5882 1.6039
8.3129 32.5882 1.4317
10.6693 32.5882 1.3144
13.2677 32.5882 1.2486
16.0866 32.5882 1.2298
19.1031 32.5882 1.2519
22.2931 32.5882 1.3083
25.6308 32.5882 1.3911
29.0898 32.5882 1.4924
32.6465 32.5882 1.6042
36.2871 32.5882 1.7336
39.9608 32.5882 1.8817
43.6369 32.5882 2.0426
47.2844 32.5882 2.211
50.8724 32.5882 2.3823
54.3702 32.5882 2.5527
57.7482 32.5882 2.7192
60.9772 32.5882 2.8794
64.0295 32.5882 3.0315
66.8785 32.5882 3.1741
69.4996 32.5882 3.306
71.8698 32.5882 3.4262
73.9684 32.5882 3.5336
75.7767 32.5882 3.627
77.2788 32.5882 3.7055
78.4613 32.5882 3.7679
79.3135 32.5882 3.8132
79.828 32.5882 3.8408
80.0 32.5882 3.85
80.0 37.8824 3.85
79.8307 37.8824 3.8819
79.3243 37.8824 3.9769
78.4848 37.8824 4.1325
77.319 37.8824 4.3445
75.8364 37.8824 4.6077
74.049 37.8824 4.9154
71.9715 37.8824 5.2604
69.6211 37.8824 5.6346
67.0171 37.8824 6.0296
64.1813 37.8824 6.4369
61.1374 37.8824 6.8479
57.9109 37.8824 7.2542
54.5291 37.8824 7.6473
51.0207 37.8824 8.0191
47.4155 37.8824 8.3617
43.7445 37.8824 8.6676
40.0392 37.8824 8.9294
36.3314 37.8824 9.1406
32.6535 37.8824 9.2952
29.0172 37.8824 9.3805
25.4698 37.8824 9.3789
22.0479 37.8824 9.2898
18.7823 37.8824 9.1153
15.7026 37.8824 8.8597
12.8366 37.8824 8.5294
10.2099 37.8824 8.1329
7.8458 37.8824 7.6802
5.7646 37.8824 7.1822
3.9842 37.8824 6.6506
2.5191 37.8824 6.0968
1.381 37.8824 5.5316
0.5786 37.8824 4.9642
0.1174 37.8824 4.402
0.0 37.8824 3.85
0.2238 37.8824 3.332
0.7835 37.8824 2.8705
1.6729 37.8824 2.4665
2.8831 37.8824 2.1206
4.4028 37.8824 1.8332
6.218 37.8824 1.6039
8.3129 37.8824 1.4317
10.6693 37.8824 1.3144
13.2677 37.8824 1.2486
16.0866 37.8824 1.2298
19.1031 37.8824 1.2519
22.2931 37.8824 1.3083
25.6308 37.8824 1.3911
29.0898 37.8824 1.4924
32.6465 37.8824 1.6042
36.2871 37.8824 1.7336
39.9608 37.8824 1.8817
43.6369 37.8824 2.0426
47.2844 37.8824 2.211
50.8724 37.8824 2.3823
54.3702 37.8824 2.5527
57.7482 37.8824 2.7192
60.9772 37.8824 2.8794
64.0295 37.8824 3.0315
66.8785 37.8824 3.1741
69.4996 37.8824 3.306
71.8698 37.8824 3.4262
73.9684 37.8824 3.5336
75.7767 37.8824 3.627
77.2788 37.8824 3.7055
78.4613 37.8824 3.7679
79.3135 37.8824 3.8132
79.828 37.8824 3.8408
80.0 37.8824 3.85
80.0 43.1765 3.85
79.8307 43.1765 3.8819
79.3243 43.1765 3.9769
78.4848 43.1765 4.1325
77.319 43.1765 4.3445
75.8364 43.1765 4.6077
74.049 43.1765 4.9154
71.9715 43.1765 5.2604
69.6211 43.1765 5.6346
67.0171 43.1765 6.0296
64.1813 43.1765 6.4369
61.1374 43.1765 6.8479
57.9109 43.1765 7.2542
54.5291 43.1765 7.6473
51.0207 43.1765 8.0191
47.4155 43.1765 8.3617
43.7445 43.1765 8.6676
40.0392 43.1765 8.9294
36.3314 43.1765 9.1406
32.6535 43.1765 9.2952
29.0172 43.1765 9.3805
25.4698 43.1765 9.3789
22.0479 43.1765 9.2898
18.7823 43.1765 9.1153
15.7026 43.1765 8.8597
12.8366 43.1765 8.5294
10.2099 43.1765 8.1329
7.8458 43.1765 7.6802
5.7646 43.1765 7.1822
3.9842 43.1765 6.6506
2.5191 43.1765 6.0968
1.381 43.1765 5.5316
0.5786 43.1765 4.9642
0.1174 43.1765 4.402
0.0 43.1765 3.85
0.2238 43.1765 3.332
0.7835 43.1765 2.8705
1.6729 43.1765 2.4665
2.8831 43.1765 2.1206
4.4028 43.1765 1.8332
6.218 43.1765 1.6039
8.3129 43.1765 1.4317
10.6693 43.1765 1.3144
13.2677 43.1765 1.2486
16.0866 43.1765 1.2298
19.1031 43.1765 1.2519
22.2931 43.1765 1.3083
25.6308 43.1765 1.3911
29.0898 43.1765 1.4924
32.6465 43.1765 1.6042
36.2871 43.1765 1.7336
39.9608 43.1765 1.8817
43.6369 43.1765 2.0426
47.2844 43.1765 2.211
50.8724 43.1765 2.3823
54.3702 43.1765 2.5527
57.7482 43.1765 2.7192
60.9772 43.1765 2.8794
64.0295 43.1765 3.0315
66.8785 43.1765 3.1741
69.4996 43.1765 3.306
71.8698 43.1765 3.4262
73.9684 43.1765 3.5336
75.7767 43.1765 3.627
77.2788 43.1765 3.7055
78.4613 43.1765 3.7679
79.3135 43.1765 3.8132
79.828 43.1765 3.8408
80.0 43.1765 3.85
80.0 48.4706 3.85
79.8307 48.4706 3.8819
79.3243 48.4706 3.9769
78.4848 48.4706 4.1325
77.319 48.4706 4.3445
75.8364 48.4706 4.6077
74.049 48.4706 4.9154
71.9715 48.4706 5.2604
69.6211 48.4706 5.6346
67.0171 48.4706 6.0296
64.1813 48.4706 6.4369
61.1374 48.4706 6.8479
57.9109 48.4706 7.2542
54.5291 48.4706 7.6473
51.0207 48.4706 8.0191
47.4155 48.4706 8.3617
43.7445 48.4706 8.6676
40.0392 48.4706 8.9294
36.3314 48.4706 9.1406
32.6535 48.4706 9.2952
29.0172 48.4706 9.3805
25.4698 48.4706 9.3789
22.0479 48.4706 9.2898
18.7823 48.4706 9.1153
15.7026 48.4706 8.8597
12.8366 48.4706 8.5294
10.2099 48.4706 8.1329
7.8458 48.4706 7.6802
5.7646 48.4706 7.1822
3.9842 48.4706 6.6506
2.5191 48.4706 6.0968
1.381 48.4706 5.5316
0.5786 48.4706 4.9642
0.1174 48.4706 4.402
0.0 48.4706 3.85
0.2238 48.4706 3.332
0.7835 48.4706 2.8705
1.6729 48.4706 2.4665
2.8831 48.4706 2.1206
4.4028 48.4706 1.8332
6.218 48.4706 1.6039
8.3129 48.4706 1.4317
10.6693 48.4706 1.3144
13.2677 48.4706 1.2486
16.0866 48.4706 1.2298
19.1031 48.4706 1.2519
22.2931 48.4706 1.3083
25.6308 48.4706 1.3911
29.0898 48.4706 1.4924
32.6465 48.4706 1.6042
36.2871 48.4706 1.7336
39.9608 48.4706 1.8817
43.6369 48.4706 2.0426
47.2844 48.4706 2.211
50.8724 48.4706 2.3823
54.3702 48.4706 2.5527
57.7482 48.4706 2.7192
60.9772 48.4706 2.8794
64.0295 48.4706 3.0315
66.8785 48.4706 3.1741
69.4996 48.4706 3.306
71.8698 48.4706 3.4262
73.9684 48.4706 3.5336
75.7767 48.4706 3.627
77.2788 48.4706 3.7055
78.4613 48.4706 3.7679
79.3135 48.4706 3.8132
79.828 48.4706 3.8408
80.0 48.4706 3.85
80.0 53.7647 3.85
79.8307 53.7647 3.8819
79.3243 53.7647 3.9769
78.4848 53.7647 4.1325
77.319 53.7647 4.3445
75.8364 53.7647 4.6077
74.049 53.7647 4.9154
71.9715 53.7647 5.2604
69.6211 53.7647 5.6346
67.0171 53.7647 6.0296
64.1813 53.7647 6.4369
61.1374 53.7647 6.8479
57.9109 53.7647 7.2542
54.5291 53.7647 7.6473
51.0207 53.7647 8.0191
47.4155 53.7647 8.3617
43.7445 53.7647 8.6676
[...]
POINT_DATA 3668
SCALARS cp1 float
LOOKUP_TABLE default
0.244841
0.159388
0.0445661
-0.0191806
-0.0660011
-0.10391
-0.136024
-0.164998
-0.192692
-0.219025
-0.244381
-0.269491
-0.294503
-0.319587
-0.345037
-0.371159
-0.398233
-0.426203
-0.456931
-0.494049
-0.531998
-0.560086
-0.578948
-0.592056
-0.598334
-0.596736
-0.585767
-0.562732
-0.522488
-0.451981
-0.328442
-0.11122
0.320136
1.01964
0.859076
-0.357043
-0.973729
-0.917442
-0.767708
-0.626812
-0.506747
-0.411556
-0.338484
-0.282527
-0.238913
-0.203908
-0.175064
-0.150716
-0.133102
-0.123286
-0.114331
-0.102481
-0.0904582
-0.0798119
-0.0704305
-0.0621069
-0.0547461
-0.0481467
-0.0418866
-0.0356067
-0.0287779
-0.020264
-0.00924097
0.00499809
0.0249943
0.0540703
0.0972677
0.186933
0.256987
0.272755
0.201099
0.0968225
0.0239381
-0.0315118
-0.0772015
-0.116296
-0.150856
-0.182357
-0.211446
-0.238871
-0.265339
-0.291278
-0.317048
-0.343003
-0.369499
-0.396823
-0.42518
-0.456168
-0.491895
-0.527569
-0.554679
-0.572741
-0.583854
-0.586895
-0.580149
-0.561279
-0.526809
-0.470824
-0.381888
-0.241508
-0.0141436
0.373557
0.888456
0.783034
-0.113199
-0.661237
-0.730161
-0.667625
-0.582551
-0.4987
-0.424115
-0.360278
-0.306178
-0.260467
-0.221769
-0.189017
-0.161562
-0.141185
-0.12811
-0.116584
-0.103265
-0.0898889
-0.0777678
-0.0669179
-0.0571315
-0.0482494
-0.0400071
-0.0319278
-0.0235175
-0.0141477
-0.0028335
0.011401
0.0296537
0.0540989
0.0883256
0.139883
0.224984
0.287294
0.294145
0.221808
0.119783
0.0486311
-0.00837865
-0.057139
-0.0998507
-0.137854
-0.172189
-0.203542
-0.232724
-0.260454
-0.287291
-0.313696
-0.340082
-0.36683
-0.394199
-0.422346
-0.452984
-0.488571
-0.524025
-0.550142
-0.566545
-0.575465
-0.575476
-0.564729
-0.540775
-0.500309
-0.438776
-0.347975
-0.214659
-0.00821613
0.358821
0.918327
0.87449
-0.0301977
-0.573008
-0.638053
-0.597461
-0.540005
-0.479379
-0.420768
-0.366141
-0.316116
-0.271174
-0.231475
-0.196911
-0.167375
-0.145282
-0.131121
-0.118456
-0.103657
-0.0888155
-0.0753474
-0.0631959
-0.0520785
-0.0417934
-0.0320641
-0.0223581
-0.0121253
-0.000727565
0.0126985
0.0289991
0.0492213
0.0750768
0.109339
0.159082
0.245049
0.311542
0.306607
0.236109
0.13596
0.0655679
0.00873292
-0.0405034
-0.0843634
-0.123974
-0.160096
-0.193261
-0.224075
-0.253155
-0.281101
-0.308395
-0.335383
-0.362423
-0.389879
-0.417896
-0.448128
-0.483016
-0.517395
-0.542009
-0.556426
-0.562782
-0.559739
-0.545765
-0.51893
-0.476524
-0.414997
-0.327695
-0.201548
-0.0054987
0.347634
0.900973
0.889599
0.0250458
-0.515436
-0.592187
-0.561075
-0.511812
-0.459432
-0.408075
-0.35922
-0.313399
-0.271109
-0.232835
-0.198784
-0.169179
-0.146701
-0.131968
-0.118593
-0.102987
-0.0872404
-0.0727494
-0.0595386
-0.0473443
-0.0358195
-0.024704
-0.0135747
-0.00185547
0.0110993
0.0260199
0.043593
0.0648253
0.0913473
0.125764
0.174933
0.259441
0.324326
0.315948
0.246313
0.147256
0.0777035
0.0213999
-0.0277409
-0.0719036
-0.112149
-0.149137
-0.18333
-0.215196
-0.245286
-0.274212
-0.302267
-0.329664
-0.356932
-0.384505
-0.412378
-0.44216
-0.476322
-0.509655
-0.532903
-0.545682
-0.550202
-0.545297
-0.529627
-0.501753
-0.459473
-0.399357
-0.315105
-0.193754
-0.00432751
0.340154
0.890454
0.901568
0.0633984
-0.475315
-0.559274
-0.53486
-0.491147
-0.443515
-0.39621
-0.35082
-0.307863
-0.267733
-0.230932
-0.197767
-0.16859
-0.14618
-0.131247
-0.117496
-0.101404
-0.0850765
-0.0698497
-0.0557855
-0.0428008
-0.0304774
-0.0183674
-0.00618321
0.00649909
0.0203472
0.0360653
0.0542856
0.0759649
0.102718
0.137151
0.185859
0.269052
0.33262
0.322699
0.253916
0.155912
0.0870681
0.0311935
-0.0177146
-0.0618196
-0.102231
-0.139569
-0.174288
-0.206796
-0.237626
-0.267249
-0.295686
-0.323343
-0.350897
-0.378539
-0.4062
-0.435569
-0.469086
-0.501528
-0.523703
-0.53529
-0.538609
-0.532674
-0.516326
-0.488336
-0.44672
-0.388105
-0.306258
-0.18833
-0.00363107
0.334655
0.882802
0.910058
0.0912191
-0.44575
-0.534683
-0.514843
-0.474797
-0.430256
-0.38565
-0.342603
-0.301642
-0.26314
-0.227578
-0.195274
-0.16662
-0.144444
-0.129534
-0.11563
-0.0992292
-0.0825211
-0.0668458
-0.0521567
-0.0384695
-0.0256091
-0.0129679
-5.48638e-05
0.0133107
0.0277005
0.0438563
0.0623721
0.0842132
0.111005
0.145353
0.193764
0.276237
0.339145
0.327921
0.259798
0.162711
0.0944641
0.0389989
-0.0095783
-0.0535201
-0.0939089
-0.13132
-0.166388
-0.199354
-0.230432
-0.260235
-0.288942
-0.316942
-0.344705
-0.372277
-0.399717
-0.42875
-0.461728
-0.49346
-0.514856
-0.52565
-0.528247
-0.521797
-0.505271
-0.477527
-0.436666
-0.379391
-0.299499
-0.184236
-0.00315311
0.330425
0.876958
0.916457
0.112491
-0.422888
-0.51548
-0.498956
-0.461542
-0.419213
-0.37653
-0.335141
-0.295598
-0.258292
-0.223687
-0.192092
-0.163929
-0.142052
-0.127263
-0.113325
-0.0967496
-0.0797698
-0.06381
-0.0487848
-0.0345777
-0.0211531
-0.00808943
0.00510094
0.0187141
0.0334981
0.0500088
0.0687178
0.0906635
0.117427
0.151682
0.199843
0.281754
0.344192
0.33213
0.264515
0.168164
0.100211
0.0449926
-0.00306727
-0.0466317
-0.086862
-0.124225
-0.159343
-0.192424
-0.223589
-0.253535
-0.282535
-0.310708
-0.338452
-0.365942
-0.393238
-0.422
-0.454539
-0.485733
-0.506586
-0.516879
-0.519074
-0.512417
-0.495953
-0.468591
-0.428482
-0.372353
-0.294037
-0.18089
-0.00264765
0.327228
0.872401
0.921364
0.129142
-0.404765
-0.500075
-0.486074
-0.450658
-0.409968
-0.368679
-0.328494
-0.289998
-0.253586
-0.219717
-0.1887
-0.160961
-0.139364
-0.12471
-0.110791
-0.0941509
-0.0770055
-0.0608107
-0.0455555
-0.0311196
-0.0173384
-0.00383914
0.00959765
0.0233651
0.0383698
0.0550296
0.0738072
0.0956729
0.12223
0.156537
0.204726
0.28618
0.348232
0.335619
0.268402
0.172595
0.105066
0.0502471
0.0025153
-0.0407883
-0.0808295
-0.118146
-0.153112
-0.186019
-0.21731
-0.247422
-0.276482
-0.304656
-0.332355
-0.359789
-0.386953
-0.415466
-0.447662
-0.478464
-0.498949
-0.508946
-0.510955
-0.504269
-0.487977
-0.461027
-0.421608
-0.366449
-0.289413
-0.17796
-0.00199659
0.324889
0.868849
0.92516
0.14232
-0.390241
-0.487582
-0.475494
-0.441605
-0.402164
-0.361926
-0.322645
-0.284938
-0.249203
-0.215902
-0.185344
-0.157946
-0.136579
-0.122056
-0.108186
-0.0915331
-0.0743134
-0.0579688
-0.0425246
-0.0279314
-0.0139817
-0.000284667
0.0133825
0.027391
0.0424969
0.059187
0.0780112
0.0998892
0.126411
0.16063
0.208681
0.289786
0.3515
0.338518
0.271667
0.176325
0.109397
0.0550742
0.00742365
-0.0357804
-0.0756015
-0.112759
-0.147599
-0.180418
-0.211689
-0.241744
-0.270742
-0.298918
-0.326587
-0.353925
-0.380933
-0.409234
-0.44117
-0.47169
-0.49193
-0.50176
-0.503715
-0.497103
-0.481036
-0.454495
-0.415682
-0.361338
-0.28536
-0.175265
-0.00114153
0.32329
0.866119
0.928104
0.152801
-0.37853
-0.477399
-0.466772
-0.434049
-0.395563
-0.356128
-0.317539
-0.280429
-0.245202
-0.212329
-0.182128
-0.155012
-0.133844
-0.119439
-0.105627
-0.0889809
-0.071728
-0.0553133
-0.0397694
-0.0250336
-0.0109266
0.00284949
0.0166004
0.0307457
0.0459206
0.0626552
0.0815232
0.103533
0.130223
0.164227
0.21193
0.292783
0.354249
0.341004
0.274455
0.179503
0.112917
0.0589165
0.0115158
-0.0314303
-0.0710146
-0.107936
-0.142587
-0.175337
-0.206552
-0.236524
-0.265449
-0.293556
-0.321132
-0.348353
-0.375226
-0.40336
-0.435097
-0.465417
-0.485499
-0.495246
-0.497206
-0.490702
-0.474873
-0.448723
-0.410436
-0.356778
-0.281683
-0.172699
-6.13619e-05
0.322349
0.86408
0.930355
0.1611
-0.369071
-0.469053
-0.459549
-0.427728
-0.389966
-0.351142
-0.313087
-0.276433
-0.241599
-0.209064
-0.179147
-0.152257
-0.131249
-0.116944
-0.103188
-0.0865656
-0.0693024
-0.0528484
-0.0372484
-0.0224412
-0.00825121
0.00559724
0.0194562
0.0337233
0.0489143
0.0656328
0.0845002
0.106491
0.133174
0.167104
0.214697
0.295364
0.356628
0.343145
0.276854
0.182287
0.116011
0.062278
0.0151395
-0.0275581
-0.0669496
-0.10369
-0.138166
-0.170771
-0.201849
-0.231698
-0.26052
-0.288527
-0.315998
-0.343107
-0.369857
-0.397849
-0.429425
-0.459592
-0.47958
-0.489304
-0.491308
-0.484934
-0.469338
-0.443527
-0.405691
-0.352604
-0.278229
-0.170162
0.0012552
0.321991
0.862637
0.932036
0.167582
-0.361496
-0.462252
-0.453576
-0.422429
-0.385224
-0.346873
-0.309224
-0.272924
-0.238398
-0.206127
-0.176425
-0.14971
-0.128833
-0.114612
-0.100908
-0.0843153
-0.0670575
-0.0505868
-0.0349533
-0.0201017
-0.00586134
0.00803222
0.0219345
0.0362451
0.0514577
0.068201
0.0870958
0.109069
0.135721
0.169611
0.217109
0.297576
0.358672
0.345014
0.27895
0.184749
0.118763
0.0652551
0.0183403
-0.0241282
-0.0633088
-0.099851
-0.134144
-0.166587
-0.197517
-0.227232
-0.255932
-0.283822
-0.311181
-0.338176
-0.36481
-0.39268
-0.424124
-0.454172
-0.474096
-0.483825
-0.485895
-0.479666
-0.464296
-0.438778
-0.401322
-0.348715
-0.274928
-0.167606
0.00281283
0.322157
0.861716
0.933242
0.172538
-0.355502
-0.456754
-0.448672
-0.418023
-0.381242
-0.343248
-0.305899
-0.269862
-0.235569
-0.203499
-0.173967
-0.147392
-0.12662
-0.112467
-0.0988089
-0.0822456
-0.0650007
-0.0485271
-0.0328779
-0.0180021
-0.00373202
0.0101925
0.0241237
0.0384597
0.0536892
0.0704423
0.0893414
0.111305
0.137949
0.171822
0.219229
0.299503
0.360456
0.346669
0.280805
0.186914
0.121183
0.067905
0.0212142
-0.0210384
-0.0600132
-0.0963594
-0.130468
-0.16274
-0.193513
-0.223083
-0.251647
-0.279412
-0.30665
-0.33353
-0.360055
-0.387816
-0.419147
-0.449101
-0.468984
-0.478733
-0.480877
-0.474781
-0.459611
-0.434355
-0.397227
-0.34502
-0.271717
-0.165001
0.00461884
0.322809
0.861258
0.934037
0.176179
-0.350866
-0.452367
-0.444684
-0.414391
-0.377909
-0.340173
-0.303049
-0.267209
-0.233092
-0.201176
-0.171774
-0.145307
-0.124616
-0.110517
-0.096898
-0.0803623
-0.0631337
-0.0466643
-0.0310098
-0.0161219
-0.00183519
0.0121075
0.0260559
0.0404072
0.0556489
0.0724096
0.0913107
0.113267
0.139893
0.173737
0.221078
0.301205
0.362036
0.348141
0.282463
0.188856
0.123359
0.0702986
0.0238181
-0.0182289
-0.0570035
-0.0931562
-0.12708
-0.159176
-0.189785
-0.219201
-0.247622
-0.275254
-0.302369
-0.329133
-0.355551
-0.383213
-0.414444
-0.444318
-0.464175
-0.473948
-0.476169
-0.470201
-0.455206
-0.43018
-0.393329
-0.341446
-0.268529
-0.162293
0.00668375
0.323905
0.861213
0.934472
0.178671
-0.347409
-0.448947
-0.441488
-0.41142
-0.375141
-0.337591
-0.300635
-0.264936
-0.230944
-0.19914
-0.169835
-0.14345
-0.12282
-0.108764
-0.095175
-0.0786637
-0.0614525
-0.044991
-0.0293373
-0.0144447
-0.000149196
0.0138042
0.0277638
0.0421256
0.0573762
0.0741425
0.0930458
0.114999
0.141614
0.175432
0.22272
0.302721
0.363441
0.349464
0.283955
0.190609
0.125332
0.0724774
0.0261983
-0.0156498
-0.0542284
-0.0901892
-0.123927
-0.155845
-0.186284
-0.215541
-0.243813
-0.271305
-0.298293
-0.324941
-0.351255
-0.378822
-0.409961
-0.439764
-0.4596
-0.469404
-0.4717
-0.46585
-0.451005
-0.426168
-0.389548
-0.337933
-0.265327
-0.159464
0.00900302
0.325416
0.861544
0.934593
0.180155
-0.34499
-0.44638
-0.43899
-0.409032
-0.372876
-0.335443
-0.298594
-0.262998
-0.2291
-0.197374
-0.168137
-0.141811
-0.121226
-0.107201
-0.093635
-0.0771454
-0.0599505
-0.0434982
-0.0278486
-0.0129554
0.00134406
0.0153039
0.0292711
0.043641
0.0588992
0.0756716
0.0945787
0.116532
0.143141
0.176941
0.224186
0.304078
0.364703
0.350656
0.285305
0.192204
0.127135
0.0744778
0.0283943
-0.0132588
-0.0516437
-0.0874133
-0.120964
-0.1527
-0.182964
-0.212055
-0.240173
-0.267522
-0.294378
-0.320908
-0.347117
-0.374589
-0.405642
-0.43538
-0.455201
-0.465038
-0.467396
-0.461645
-0.446936
-0.42226
-0.385829
-0.334436
-0.262082
-0.15651
0.0115688
0.327319
0.862221
0.934429
0.180738
-0.343489
-0.444567
-0.437117
-0.407176
-0.371066
-0.333685
-0.296891
-0.261359
-0.227521
-0.19585
-0.166666
-0.14038
-0.119825
-0.10582
-0.0922705
-0.0757996
-0.0586187
-0.0421766
-0.0265335
-0.0116418
0.00265927
0.0166234
0.0305967
0.0449739
0.0602399
0.0770197
0.0959338
0.117892
0.144499
0.178288
0.2255
0.3053
0.365842
0.351737
0.286533
0.193664
0.128796
0.0763304
0.0304387
-0.0110211
-0.0492119
-0.0847883
-0.118148
-0.149697
-0.179781
-0.2087
-0.236655
-0.263854
-0.290574
-0.316981
-0.343085
-0.370464
-0.401433
-0.431111
-0.450911
-0.460772
-0.463187
-0.457525
-0.442941
-0.418411
-0.382139
-0.330923
-0.258758
-0.153402
0.0143911
0.329597
0.863213
0.934002
0.18051
-0.342808
-0.44342
-0.435792
-0.405785
-0.369657
-0.332281
-0.295505
-0.259995
-0.226183
-0.194545
-0.165393
-0.139134
-0.118604
-0.104615
-0.0910761
-0.0746165
-0.0574479
-0.0410175
-0.0253814
-0.010492
0.0038086
0.017775
0.031754
0.0461392
0.0614143
0.0782041
0.097129
0.119096
0.145708
0.179493
0.226681
0.306403
0.366873
0.35272
0.287654
0.195007
0.130335
0.0780599
0.0323597
-0.00890598
-0.0469
-0.0822785
-0.115439
-0.146794
-0.17669
-0.205429
-0.233212
-0.260253
-0.286829
-0.31311
-0.339107
-0.366389
-0.397269
-0.426882
-0.446661
-0.456544
-0.459021
-0.453447
-0.438972
-0.414566
-0.378427
-0.327347
-0.255322
-0.15012
0.0174688
0.332231
0.864497
0.933333
0.17954
-0.34287
-0.442874
-0.434958
-0.404803
-0.368598
-0.331187
-0.294395
-0.258881
-0.225073
-0.193442
-0.1643
-0.138058
-0.117544
-0.103564
-0.0900369
-0.0735913
-0.0564333
-0.0400114
-0.0243827
-0.00949832
0.00480012
0.0187682
0.0327538
0.0471485
0.0624341
0.0792366
0.0981759
0.120156
0.146779
0.180568
0.227743
0.307402
0.367811
0.353614
0.288681
0.196249
0.131771
0.0796872
0.0341818
-0.00688464
-0.0446752
-0.0798478
-0.112802
-0.143951
-0.173647
-0.202193
-0.229795
-0.256668
-0.28309
-0.309234
-0.335114
-0.362296
-0.393083
-0.422629
-0.442393
-0.452305
-0.45484
-0.449347
-0.434971
-0.41067
-0.37464
-0.323675
-0.25176
-0.146658
0.0208057
0.335206
0.866051
0.932437
0.177892
-0.343604
-0.442866
-0.434563
-0.404192
-0.367857
-0.330363
-0.293521
-0.257982
-0.22416
-0.192522
-0.163378
-0.137141
-0.11663
-0.102652
-0.0891358
-0.0727046
-0.0555614
-0.0391526
-0.0235346
-0.00865685
0.00564023
0.0196102
0.033601
0.0480055
0.0633049
0.0801242
0.0990821
0.121082
0.147723
0.181525
0.228696
0.308307
0.368665
0.354425
0.28962
0.1974
0.133117
0.0812293
0.0359252
-0.00493312
-0.042509
-0.0774625
-0.110198
-0.141129
-0.170608
-0.198944
-0.226348
-0.253036
-0.279291
-0.305287
-0.331038
-0.358116
-0.388813
-0.418292
-0.438042
-0.447983
-0.450571
-0.445155
-0.430879
-0.406685
-0.370757
-0.319885
-0.248047
-0.142993
0.0244183
0.338521
0.867857
0.931326
0.175626
-0.344931
-0.443322
-0.434548
-0.403906
-0.367397
-0.329784
-0.292863
-0.257267
-0.223408
-0.191753
-0.1626
-0.136359
-0.115849
-0.101874
-0.0883643
-0.0719463
-0.0548225
-0.0384313
-0.0228269
-0.00796069
0.0063307
0.0203008
0.0342964
0.0487116
0.0640283
0.0808684
0.0998499
0.121876
0.148543
0.182366
0.229545
0.309123
0.369441
0.355155
0.290475
0.198467
0.134384
0.0826998
0.0376082
-0.00302899
-0.0403755
-0.0750931
-0.107589
-0.13828
-0.167522
-0.195627
-0.222811
-0.249294
-0.275363
-0.301197
-0.326812
-0.353777
-0.384378
-0.41379
-0.433527
-0.443496
-0.446144
-0.44082
-0.426649
-0.402564
-0.36673
-0.315927
-0.244145
-0.13912
0.0282771
0.342142
0.869896
0.930014
0.172796
-0.346811
-0.444223
-0.434882
-0.403901
-0.367164
-0.329397
-0.29238
-0.256712
-0.2228
-0.191107
-0.161931
-0.135687
-0.115179
-0.101209
-0.0877107
-0.0713117
-0.0542098
-0.0378411
-0.0222577
-0.00740923
0.00687108
0.0208383
0.0348374
0.0492636
0.0645992
0.0814641
0.100476
0.122536
0.149238
0.183093
0.230291
0.309852
0.370141
0.355802
0.291245
0.199451
0.135576
0.0841087
0.0392457
-0.00115125
-0.0382473
-0.0727056
-0.104937
-0.13536
-0.164335
-0.19218
-0.219115
-0.245368
-0.271229
-0.29688
-0.322345
-0.349187
-0.379679
-0.409018
-0.42875
-0.438768
-0.441497
-0.436275
-0.422209
-0.398239
-0.362516
-0.31179
-0.24005
-0.13503
0.0323826
0.346056
0.872143
0.928513
0.169463
-0.349175
-0.445507
-0.435513
-0.40413
-0.36713
-0.329182
-0.292029
-0.256266
-0.222296
-0.190559
-0.161355
-0.1351
-0.11459
-0.100627
-0.0871533
-0.0707854
-0.0537161
-0.0373814
-0.0218294
-0.0070062
0.00725609
0.0212138
0.0352135
0.0496503
0.0650067
0.0819012
0.10095
0.123053
0.149799
0.183698
0.230932
0.310494
0.370766
0.356358
0.291923
0.200349
0.136696
0.0854632
0.0408499
0.000717994
-0.0360984
-0.0702652
-0.102196
-0.132315
-0.160987
-0.188535
-0.215185
-0.241173
-0.266794
-0.292237
-0.317525
-0.344222
-0.374606
-0.403881
-0.423614
-0.433693
-0.436521
-0.431429
-0.417504
-0.393672
-0.358075
-0.307446
-0.235743
-0.130704
0.0367533
0.350252
0.874573
0.926839
0.16569
-0.351935
-0.447081
-0.436369
-0.40454
-0.367248
-0.329094
-0.291781
-0.255901
-0.221845
-0.190054
-0.160828
-0.134565
-0.114058
-0.100116
-0.0866728
-0.070347
-0.0533315
-0.0370494
-0.0215447
-0.00676164
0.00747118
0.0214111
0.0354064
0.0498528
0.0652316
0.0821596
0.101253
0.123408
0.150212
0.18417
0.231455
0.31104
0.37131
0.356807
0.292495
0.20115
0.137738
0.0867636
0.0424286
0.00259471
-0.0339046
-0.0677384
-0.0993243
-0.129092
-0.15741
-0.18461
-0.210927
-0.236603
-0.261937
-0.287131
-0.312221
-0.338761
-0.369028
-0.398235
-0.417972
-0.42814
-0.431111
-0.426191
-0.412455
-0.388795
-0.353348
-0.302837
-0.231196
-0.126154
0.0413549
0.354684
0.877146
0.925016
0.161556
-0.355016
-0.448889
-0.437397
-0.405075
-0.367447
-0.329052
-0.291567
-0.255563
-0.22141
-0.189554
-0.160298
-0.134025
-0.113534
-0.0996377
-0.0862496
-0.0699898
-0.0530475
-0.0368383
-0.0214084
-0.00669113
0.00749397
0.0214032
0.0353845
0.049836
0.065238
0.0822049
0.101352
0.123573
0.15045
0.184485
0.231842
0.311476
0.371761
0.35712
0.292932
0.20183
0.138682
0.087998
0.0439802
0.00448932
-0.0316428
-0.0650885
-0.0962695
-0.125622
-0.153518
-0.1803
-0.206221
-0.231525
-0.25652
-0.28142
-0.306268
-0.33262
-0.36275
-0.391891
-0.411663
-0.421962
-0.425126
-0.420429
-0.406936
-0.383519
-0.348288
-0.297947
-0.226408
-0.12139
0.0461547
0.359298
0.879815
0.923074
0.157173
-0.358306
-0.450837
-0.438513
-0.405657
-0.36766
-0.328995
-0.291308
-0.255157
-0.220905
-0.18899
-0.159704
-0.133432
-0.112978
-0.0991396
-0.0858358
-0.0696888
-0.0528615
-0.0367623
-0.0214404
-0.00681757
0.00729463
0.0211534
0.0351041
0.04955
0.0649736
0.0819848
0.101196
0.123498
0.150467
0.184602
0.232061
0.311776
0.3721
0.357252
0.293188
0.202347
0.139496
0.0891464
0.0454985
0.00640865
-0.0292906
-0.0622747
-0.0929715
-0.121825
-0.149215
-0.175494
-0.20093
-0.225772
-0.25035
-0.274896
-0.299449
-0.325572
-0.355538
-0.384615
-0.404454
-0.414926
-0.418347
-0.413968
-0.400822
-0.37775
-0.342831
-0.292745
-0.221381
-0.116444
0.0510913
0.364006
0.882509
0.921065
0.152694
-0.361653
-0.452799
-0.439605