# vtk DataFile Version 2.0
scalar
ASCII
DATASET UNSTRUCTURED_GRID
POINTS 1105 float
100.0 0.0 0.0
99.5722 0.0 0.062
98.2963 0.0 0.2449
96.194 0.0 0.5399
93.3013 0.0 0.9332
89.6677 0.0 1.4076
85.3553 0.0 1.9438
80.4381 0.0 2.5217
75.0 0.0 3.1204
69.1342 0.0 3.7188
62.941 0.0 4.2949
56.5263 0.0 4.8255
50.0 0.0 5.2861
43.4737 0.0 5.6514
37.059 0.0 5.8965
30.8658 0.0 5.9988
25.0 0.0 5.9408
19.5619 0.0 5.7114
14.6447 0.0 5.3083
10.3323 0.0 4.7379
6.6987 0.0 4.0145
3.806 0.0 3.158
1.7037 0.0 2.1904
0.4278 0.0 1.1324
0.0 0.0 0.0
0.4278 0.0 -1.1324
1.7037 0.0 -2.1904
3.806 0.0 -3.158
6.6987 0.0 -4.0145
10.3323 0.0 -4.7379
14.6447 0.0 -5.3083
19.5619 0.0 -5.7114
25.0 0.0 -5.9408
30.8658 0.0 -5.9988
37.059 0.0 -5.8965
43.4737 0.0 -5.6514
50.0 0.0 -5.2861
56.5263 0.0 -4.8255
62.941 0.0 -4.2949
69.1342 0.0 -3.7188
75.0 0.0 -3.1204
80.4381 0.0 -2.5217
85.3553 0.0 -1.9438
89.6677 0.0 -1.4076
93.3013 0.0 -0.9332
96.194 0.0 -0.5399
98.2963 0.0 -0.2449
99.5722 0.0 -0.062
100.0 0.0 0.0
100.0 15.7895 0.0
99.5722 15.7895 0.062
98.2963 15.7895 0.2449
96.194 15.7895 0.5399
93.3013 15.7895 0.9332
89.6677 15.7895 1.4076
85.3553 15.7895 1.9438
80.4381 15.7895 2.5217
75.0 15.7895 3.1204
69.1342 15.7895 3.7188
62.941 15.7895 4.2949
56.5263 15.7895 4.8255
50.0 15.7895 5.2861
43.4737 15.7895 5.6514
37.059 15.7895 5.8965
30.8658 15.7895 5.9988
25.0 15.7895 5.9408
19.5619 15.7895 5.7114
14.6447 15.7895 5.3083
10.3323 15.7895 4.7379
6.6987 15.7895 4.0145
3.806 15.7895 3.158
1.7037 15.7895 2.1904
0.4278 15.7895 1.1324
0.0 15.7895 0.0
0.4278 15.7895 -1.1324
1.7037 15.7895 -2.1904
3.806 15.7895 -3.158
6.6987 15.7895 -4.0145
10.3323 15.7895 -4.7379
14.6447 15.7895 -5.3083
19.5619 15.7895 -5.7114
25.0 15.7895 -5.9408
30.8658 15.7895 -5.9988
37.059 15.7895 -5.8965
43.4737 15.7895 -5.6514
50.0 15.7895 -5.2861
56.5263 15.7895 -4.8255
62.941 15.7895 -4.2949
69.1342 15.7895 -3.7188
75.0 15.7895 -3.1204
80.4381 15.7895 -2.5217
85.3553 15.7895 -1.9438
89.6677 15.7895 -1.4076
93.3013 15.7895 -0.9332
96.194 15.7895 -0.5399
98.2963 15.7895 -0.2449
99.5722 15.7895 -0.062
100.0 15.7895 0.0
100.0 31.5789 0.0
99.5722 31.5789 0.062
98.2963 31.5789 0.2449
96.194 31.5789 0.5399
93.3013 31.5789 0.9332
89.6677 31.5789 1.4076
85.3553 31.5789 1.9438
80.4381 31.5789 2.5217
75.0 31.5789 3.1204
69.1342 31.5789 3.7188
62.941 31.5789 4.2949
56.5263 31.5789 4.8255
50.0 31.5789 5.2861
43.4737 31.5789 5.6514
37.059 31.5789 5.8965
30.8658 31.5789 5.9988
25.0 31.5789 5.9408
19.5619 31.5789 5.7114
14.6447 31.5789 5.3083
10.3323 31.5789 4.7379
6.6987 31.5789 4.0145
3.806 31.5789 3.158
1.7037 31.5789 2.1904
0.4278 31.5789 1.1324
0.0 31.5789 0.0
0.4278 31.5789 -1.1324
1.7037 31.5789 -2.1904
3.806 31.5789 -3.158
6.6987 31.5789 -4.0145
10.3323 31.5789 -4.7379
14.6447 31.5789 -5.3083
19.5619 31.5789 -5.7114
25.0 31.5789 -5.9408
30.8658 31.5789 -5.9988
37.059 31.5789 -5.8965
43.4737 31.5789 -5.6514
50.0 31.5789 -5.2861
56.5263 31.5789 -4.8255
62.941 31.5789 -4.2949
69.1342 31.5789 -3.7188
75.0 31.5789 -3.1204
80.4381 31.5789 -2.5217
85.3553 31.5789 -1.9438
89.6677 31.5789 -1.4076
93.3013 31.5789 -0.9332
96.194 31.5789 -0.5399
98.2963 31.5789 -0.2449
99.5722 31.5789 -0.062
100.0 31.5789 0.0
100.0 47.3684 0.0
99.5722 47.3684 0.062
98.2963 47.3684 0.2449
96.194 47.3684 0.5399
93.3013 47.3684 0.9332
89.6677 47.3684 1.4076
85.3553 47.3684 1.9438
80.4381 47.3684 2.5217
75.0 47.3684 3.1204
69.1342 47.3684 3.7188
62.941 47.3684 4.2949
56.5263 47.3684 4.8255
50.0 47.3684 5.2861
43.4737 47.3684 5.6514
37.059 47.3684 5.8965
30.8658 47.3684 5.9988
25.0 47.3684 5.9408
19.5619 47.3684 5.7114
14.6447 47.3684 5.3083
10.3323 47.3684 4.7379
6.6987 47.3684 4.0145
3.806 47.3684 3.158
1.7037 47.3684 2.1904
0.4278 47.3684 1.1324
0.0 47.3684 0.0
0.4278 47.3684 -1.1324
1.7037 47.3684 -2.1904
3.806 47.3684 -3.158
6.6987 47.3684 -4.0145
10.3323 47.3684 -4.7379
14.6447 47.3684 -5.3083
19.5619 47.3684 -5.7114
25.0 47.3684 -5.9408
30.8658 47.3684 -5.9988
37.059 47.3684 -5.8965
43.4737 47.3684 -5.6514
50.0 47.3684 -5.2861
56.5263 47.3684 -4.8255
62.941 47.3684 -4.2949
69.1342 47.3684 -3.7188
75.0 47.3684 -3.1204
80.4381 47.3684 -2.5217
85.3553 47.3684 -1.9438
89.6677 47.3684 -1.4076
93.3013 47.3684 -0.9332
96.194 47.3684 -0.5399
98.2963 47.3684 -0.2449
99.5722 47.3684 -0.062
100.0 47.3684 0.0
100.0 63.1579 0.0
99.5722 63.1579 0.062
98.2963 63.1579 0.2449
96.194 63.1579 0.5399
93.3013 63.1579 0.9332
89.6677 63.1579 1.4076
85.3553 63.1579 1.9438
80.4381 63.1579 2.5217
75.0 63.1579 3.1204
69.1342 63.1579 3.7188
62.941 63.1579 4.2949
56.5263 63.1579 4.8255
50.0 63.1579 5.2861
43.4737 63.1579 5.6514
37.059 63.1579 5.8965
30.8658 63.1579 5.9988
25.0 63.1579 5.9408
19.5619 63.1579 5.7114
14.6447 63.1579 5.3083
10.3323 63.1579 4.7379
6.6987 63.1579 4.0145
3.806 63.1579 3.158
1.7037 63.1579 2.1904
0.4278 63.1579 1.1324
0.0 63.1579 0.0
0.4278 63.1579 -1.1324
1.7037 63.1579 -2.1904
3.806 63.1579 -3.158
6.6987 63.1579 -4.0145
10.3323 63.1579 -4.7379
14.6447 63.1579 -5.3083
19.5619 63.1579 -5.7114
25.0 63.1579 -5.9408
30.8658 63.1579 -5.9988
37.059 63.1579 -5.8965
43.4737 63.1579 -5.6514
50.0 63.1579 -5.2861
56.5263 63.1579 -4.8255
62.941 63.1579 -4.2949
69.1342 63.1579 -3.7188
75.0 63.1579 -3.1204
80.4381 63.1579 -2.5217
85.3553 63.1579 -1.9438
89.6677 63.1579 -1.4076
93.3013 63.1579 -0.9332
96.194 63.1579 -0.5399
98.2963 63.1579 -0.2449
99.5722 63.1579 -0.062
100.0 63.1579 0.0
100.0 78.9474 0.0
99.5722 78.9474 0.062
98.2963 78.9474 0.2449
96.194 78.9474 0.5399
93.3013 78.9474 0.9332
89.6677 78.9474 1.4076
85.3553 78.9474 1.9438
80.4381 78.9474 2.5217
75.0 78.9474 3.1204
69.1342 78.9474 3.7188
62.941 78.9474 4.2949
56.5263 78.9474 4.8255
50.0 78.9474 5.2861
43.4737 78.9474 5.6514
37.059 78.9474 5.8965
30.8658 78.9474 5.9988
25.0 78.9474 5.9408
19.5619 78.9474 5.7114
14.6447 78.9474 5.3083
10.3323 78.9474 4.7379
6.6987 78.9474 4.0145
3.806 78.9474 3.158
1.7037 78.9474 2.1904
0.4278 78.9474 1.1324
0.0 78.9474 0.0
0.4278 78.9474 -1.1324
1.7037 78.9474 -2.1904
3.806 78.9474 -3.158
6.6987 78.9474 -4.0145
10.3323 78.9474 -4.7379
14.6447 78.9474 -5.3083
19.5619 78.9474 -5.7114
25.0 78.9474 -5.9408
30.8658 78.9474 -5.9988
37.059 78.9474 -5.8965
43.4737 78.9474 -5.6514
50.0 78.9474 -5.2861
56.5263 78.9474 -4.8255
62.941 78.9474 -4.2949
69.1342 78.9474 -3.7188
75.0 78.9474 -3.1204
80.4381 78.9474 -2.5217
85.3553 78.9474 -1.9438
89.6677 78.9474 -1.4076
93.3013 78.9474 -0.9332
96.194 78.9474 -0.5399
98.2963 78.9474 -0.2449
99.5722 78.9474 -0.062
100.0 78.9474 0.0
100.0 94.7368 0.0
99.5722 94.7368 0.062
98.2963 94.7368 0.2449
96.194 94.7368 0.5399
93.3013 94.7368 0.9332
89.6677 94.7368 1.4076
85.3553 94.7368 1.9438
80.4381 94.7368 2.5217
75.0 94.7368 3.1204
69.1342 94.7368 3.7188
62.941 94.7368 4.2949
56.5263 94.7368 4.8255
50.0 94.7368 5.2861
43.4737 94.7368 5.6514
37.059 94.7368 5.8965
30.8658 94.7368 5.9988
25.0 94.7368 5.9408
19.5619 94.7368 5.7114
14.6447 94.7368 5.3083
10.3323 94.7368 4.7379
6.6987 94.7368 4.0145
3.806 94.7368 3.158
1.7037 94.7368 2.1904
0.4278 94.7368 1.1324
0.0 94.7368 0.0
0.4278 94.7368 -1.1324
1.7037 94.7368 -2.1904
3.806 94.7368 -3.158
6.6987 94.7368 -4.0145
10.3323 94.7368 -4.7379
14.6447 94.7368 -5.3083
19.5619 94.7368 -5.7114
25.0 94.7368 -5.9408
30.8658 94.7368 -5.9988
37.059 94.7368 -5.8965
43.4737 94.7368 -5.6514
50.0 94.7368 -5.2861
56.5263 94.7368 -4.8255
62.941 94.7368 -4.2949
69.1342 94.7368 -3.7188
75.0 94.7368 -3.1204
80.4381 94.7368 -2.5217
85.3553 94.7368 -1.9438
89.6677 94.7368 -1.4076
93.3013 94.7368 -0.9332
96.194 94.7368 -0.5399
98.2963 94.7368 -0.2449
99.5722 94.7368 -0.062
100.0 94.7368 0.0
100.0 110.526 0.0
99.5722 110.526 0.062
98.2963 110.526 0.2449
96.194 110.526 0.5399
93.3013 110.526 0.9332
89.6677 110.526 1.4076
85.3553 110.526 1.9438
80.4381 110.526 2.5217
75.0 110.526 3.1204
69.1342 110.526 3.7188
62.941 110.526 4.2949
56.5263 110.526 4.8255
50.0 110.526 5.2861
43.4737 110.526 5.6514
37.059 110.526 5.8965
30.8658 110.526 5.9988
25.0 110.526 5.9408
19.5619 110.526 5.7114
14.6447 110.526 5.3083
10.3323 110.526 4.7379
6.6987 110.526 4.0145
3.806 110.526 3.158
1.7037 110.526 2.1904
0.4278 110.526 1.1324
0.0 110.526 0.0
0.4278 110.526 -1.1324
1.7037 110.526 -2.1904
3.806 110.526 -3.158
6.6987 110.526 -4.0145
10.3323 110.526 -4.7379
14.6447 110.526 -5.3083
19.5619 110.526 -5.7114
25.0 110.526 -5.9408
30.8658 110.526 -5.9988
37.059 110.526 -5.8965
43.4737 110.526 -5.6514
50.0 110.526 -5.2861
56.5263 110.526 -4.8255
62.941 110.526 -4.2949
69.1342 110.526 -3.7188
75.0 110.526 -3.1204
80.4381 110.526 -2.5217
85.3553 110.526 -1.9438
89.6677 110.526 -1.4076
93.3013 110.526 -0.9332
96.194 110.526 -0.5399
98.2963 110.526 -0.2449
99.5722 110.526 -0.062
100.0 110.526 0.0
100.0 126.316 0.0
99.5722 126.316 0.062
98.2963 126.316 0.2449
96.194 126.316 0.5399
93.3013 126.316 0.9332
89.6677 126.316 1.4076
85.3553 126.316 1.9438
80.4381 126.316 2.5217
75.0 126.316 3.1204
69.1342 126.316 3.7188
62.941 126.316 4.2949
56.5263 126.316 4.8255
50.0 126.316 5.2861
43.4737 126.316 5.6514
37.059 126.316 5.8965
30.8658 126.316 5.9988
25.0 126.316 5.9408
19.5619 126.316 5.7114
14.6447 126.316 5.3083
10.3323 126.316 4.7379
6.6987 126.316 4.0145
3.806 126.316 3.158
1.7037 126.316 2.1904
0.4278 126.316 1.1324
0.0 126.316 0.0
0.4278 126.316 -1.1324
1.7037 126.316 -2.1904
3.806 126.316 -3.158
6.6987 126.316 -4.0145
10.3323 126.316 -4.7379
14.6447 126.316 -5.3083
19.5619 126.316 -5.7114
25.0 126.316 -5.9408
30.8658 126.316 -5.9988
37.059 126.316 -5.8965
43.4737 126.316 -5.6514
50.0 126.316 -5.2861
56.5263 126.316 -4.8255
62.941 126.316 -4.2949
69.1342 126.316 -3.7188
75.0 126.316 -3.1204
[...]
POINT_DATA 1105
SCALARS cp1 float
LOOKUP_TABLE default
0.403707
0.316943
0.196428
0.121105
0.0569172
-0.00141362
-0.0561982
-0.109237
-0.162088
-0.216311
-0.273446
-0.334844
-0.401669
-0.474905
-0.555238
-0.643222
-0.739891
-0.847116
-0.968669
-1.11238
-1.29544
-1.5717
-2.07218
-2.09339
-0.149675
1.33087
0.923068
0.501332
0.288688
0.156984
0.0702635
0.014134
-0.0199586
-0.0380138
-0.0445703
-0.0430474
-0.0360828
-0.0255452
-0.0124847
0.00269768
0.0200811
0.0401916
0.0638858
0.0922026
0.12658
0.169222
0.225221
0.327734
0.404944
0.403674
0.327496
0.213921
0.130675
0.062625
0.0022933
-0.0537281
-0.10765
-0.161223
-0.21608
-0.273783
-0.335711
-0.403053
-0.476819
-0.55778
-0.646668
-0.744736
-0.854263
-0.979731
-1.13011
-1.32285
-1.59043
-1.93084
-1.76997
-0.198632
1.02301
0.867309
0.535953
0.315936
0.173466
0.0803106
0.0204895
-0.0158362
-0.0353356
-0.0428578
-0.04199
-0.0354329
-0.025079
-0.0120188
0.00331586
0.021002
0.0415701
0.0659172
0.0952494
0.131394
0.177581
0.241136
0.337475
0.40492
0.403667
0.323247
0.208651
0.127761
0.0609505
0.00129859
-0.0542784
-0.107865
-0.161151
-0.215746
-0.273208
-0.334902
-0.402012
-0.475541
-0.556236
-0.644773
-0.742335
-0.851058
-0.97514
-1.1231
-1.31208
-1.58039
-1.96599
-1.87141
-0.174373
1.12506
0.881868
0.523625
0.305919
0.166882
0.0758819
0.0173813
-0.0180838
-0.0369913
-0.0440958
-0.0429292
-0.0361672
-0.0256889
-0.0125702
0.00276867
0.0204075
0.0408744
0.065054
0.0941009
0.129721
0.174839
0.236205
0.333497
0.40492
0.403703
0.323308
0.208769
0.127942
0.0612
0.00162377
-0.0538713
-0.107371
-0.160565
-0.215064
-0.272421
-0.334004
-0.400991
-0.474378
-0.554905
-0.643231
-0.740524
-0.84891
-0.972599
-1.12015
-1.30874
-1.57642
-1.96028
-1.86309
-0.168061
1.12536
0.879782
0.521522
0.304161
0.165479
0.0747085
0.0163351
-0.0190492
-0.0378872
-0.0449208
-0.0436804
-0.0368441
-0.0262933
-0.013105
0.00230087
0.0200043
0.0405337
0.0647744
0.0938812
0.12956
0.174736
0.236155
0.333492
0.404939
0.403748
0.323396
0.208938
0.128203
0.0615607
0.00209146
-0.05329
-0.10667
-0.159737
-0.214101
-0.271316
-0.332745
-0.399566
-0.472769
-0.55309
-0.64118
-0.738195
-0.846238
-0.969478
-1.1164
-1.30403
-1.57012
-1.95099
-1.85002
-0.158352
1.12607
0.877056
0.518714
0.301649
0.163252
0.0727302
0.014574
-0.0206203
-0.0392924
-0.0461797
-0.044808
-0.0378517
-0.0271892
-0.0138951
0.00161193
0.019413
0.0400374
0.0643703
0.0935666
0.129332
0.174588
0.236081
0.333481
0.404958
0.403807
0.323511
0.209163
0.12855
0.0620411
0.00271504
-0.0525144
-0.105734
-0.158631
-0.212817
-0.269842
-0.331068
-0.397667
-0.470628
-0.550676
-0.638451
-0.735093
-0.842674
-0.965312
-1.1114
-1.2978
-1.56183
-1.9388
-1.83289
-0.145683
1.12692
0.873437
0.515001
0.298338
0.160325
0.070134
0.0122592
-0.0226924
-0.0411516
-0.0478489
-0.0463047
-0.0391896
-0.0283787
-0.0149442
0.000697098
0.0186278
0.0393779
0.063833
0.0931477
0.129027
0.174391
0.235983
0.333466
0.404982
0.40388
0.323656
0.209449
0.128993
0.0626552
0.00351283
-0.0515214
-0.104534
-0.157215
-0.211171
-0.267954
-0.32892
-0.39524
-0.467892
-0.547595
-0.634974
-0.731144
-0.838143
-0.960026
-1.10507
-1.28992
-1.55136
-1.92342
-1.81132
-0.129782
1.12793
0.868836
0.510299
0.294148
0.156621
0.0668467
0.00932635
-0.0253197
-0.0435108
-0.0499685
-0.0482066
-0.0408907
-0.029892
-0.0162798
-0.000468352
0.0176267
0.0385364
0.0631469
0.0926123
0.128636
0.174138
0.235855
0.333445
0.405012
0.403967
0.323833
0.209802
0.129544
0.0634209
0.00450932
-0.0502797
-0.103034
-0.155442
-0.209111
-0.26559
-0.326233
-0.392204
-0.464475
-0.543752
-0.630643
-0.726236
-0.832523
-0.953481
-1.09725
-1.2802
-1.53848
-1.90453
-1.78488
-0.11038
1.12905
0.863133
0.504495
0.288981
0.152054
0.0627921
0.00570705
-0.0285642
-0.0464265
-0.0525902
-0.0505609
-0.0429983
-0.0317687
-0.0179376
-0.00191642
0.0163814
0.0374885
0.0622914
0.0919435
0.128148
0.17382
0.235694
0.333417
0.405046
0.404067
0.324045
0.210232
0.130218
0.0643616
0.00573641
-0.0487481
-0.101181
-0.15325
-0.206564
-0.262668
-0.322913
-0.388456
-0.460262
-0.539021
-0.625322
-0.720219
-0.825649
-0.945497
-1.08774
-1.26841
-1.52287
-1.88171
-1.75303
-0.0871304
1.13026
0.856165
0.497443
0.28271
0.146512
0.0578708
0.00131175
-0.0325069
-0.0499724
-0.0557813
-0.0534294
-0.0455688
-0.0340603
-0.0199644
-0.00368919
0.0148547
0.0362016
0.0612386
0.0911187
0.127543
0.173425
0.235491
0.333377
0.405084
0.404176
0.324291
0.210748
0.131034
0.0655063
0.00723498
-0.046873
-0.0989078
-0.150559
-0.203434
-0.259076
-0.318833
-0.383855
-0.455096
-0.533232
-0.618827
-0.712893
-0.817304
-0.935834
-1.07626
-1.25421
-1.50416
-1.85442
-1.71508
-0.0596016
1.13147
0.847722
0.48895
0.27517
0.139851
0.0519544
-0.00397485
-0.0372524
-0.0542435
-0.0596287
-0.0568913
-0.0486748
-0.0368331
-0.0224209
-0.00584172
0.012997
0.034632
0.0599511
0.0901066
0.126798
0.172934
0.235235
0.33332
0.405122
0.404288
0.324568
0.211356
0.132012
0.0668905
0.00905669
-0.0445851
-0.096127
-0.14726
-0.199592
-0.254665
-0.313821
-0.378208
-0.448766
-0.526153
-0.610905
-0.703987
-0.807196
-0.924172
-1.06245
-1.23722
-1.48182
-1.82196
-1.67012
-0.0272538
1.13259
0.837524
0.478767
0.266146
0.131884
0.0448774
-0.0103008
-0.0429339
-0.0593607
-0.0642421
-0.0610471
-0.0524088
-0.0401723
-0.0253854
-0.008446
0.0107429
0.0327211
0.0583774
0.0888635
0.125876
0.17232
0.234906
0.333235
0.405155
0.404383
0.324866
0.21206
0.133174
0.0685551
0.0112651
-0.0417957
-0.0927224
-0.143209
-0.194864
-0.249228
-0.307643
-0.37125
-0.440977
-0.517462
-0.601209
-0.693129
-0.794924
-0.910079
-1.04585
-1.21686
-1.45518
-1.78342
-1.61702
0.0105916
1.13346
0.825196
0.466564
0.255359
0.122366
0.0364248
-0.0178571
-0.049722
-0.0654773
-0.0697604
-0.0660235
-0.0568872
-0.0441863
-0.0289594
-0.0115969
0.00800417
0.0303878
0.0564448
0.0873261
0.124725
0.171541
0.234475
0.333102
0.405168
0.404427
0.325153
0.212849
0.134532
0.0705423
0.0139349
-0.0383941
-0.0885437
-0.138212
-0.18901
-0.242481
-0.299967
-0.362604
-0.43131
-0.506703
-0.589249
-0.679792
-0.779927
-0.892951
-1.02579
-1.1924
-1.42335
-1.73759
-1.55425
0.0547961
1.13384
0.810224
0.451897
0.24243
0.110974
0.0263142
-0.0268911
-0.0578344
-0.0727857
-0.0763555
-0.0719766
-0.0622548
-0.0490119
-0.0332739
-0.015421
0.00465924
0.0275172
0.0540468
0.0853985
0.123262
0.170529
0.233888
0.332884
0.405135
0.404341
0.325358
0.213678
0.136076
0.0728824
0.0171442
-0.0342479
-0.083398
-0.13201
-0.181703
-0.234024
-0.29032
-0.351727
-0.419157
-0.493206
-0.5743
-0.663208
-0.761392
-0.871925
-1.00133
-1.16279
-1.38506
-1.68283
-1.47978
0.106478
1.13335
0.791884
0.434146
0.226843
0.0972662
0.0141677
-0.0377261
-0.0675472
-0.0815228
-0.0842337
-0.0790916
-0.0686849
-0.0548179
-0.0384988
-0.0200905
0.000534332
0.0239371
0.0510176
0.0829262
0.121349
0.169166
0.233048
0.332509
0.405003
0.403967
0.325316
0.214418
0.137727
0.0755563
0.0209463
-0.029219
-0.0770509
-0.124264
-0.172487
-0.223282
-0.278006
-0.337807
-0.403594
-0.47595
-0.555259
-0.642202
-0.738085
-0.845704
-0.971089
-1.1265
-1.33854
-1.6168
-1.39076
0.167141
1.13137
0.7691
0.412411
0.207852
0.080619
-0.000533944
-0.0507884
-0.0792045
-0.0919648
-0.0936218
-0.0875665
-0.0763675
-0.0618036
-0.0448532
-0.0258483
-0.00463393
0.0193723
0.0470809
0.0796432
0.118737
0.16723
0.231771
0.33183
0.404661
0.402998
0.32466
0.214739
0.139219
0.0783888
0.0252817
-0.023224
-0.0692532
-0.11454
-0.160736
-0.209424
-0.261988
-0.319595
-0.383173
-0.453307
-0.530347
-0.61488
-0.708024
-0.812232
-0.932922
-1.08121
-1.28109
-1.536
-1.28296
0.23894
1.12686
0.740172
0.385295
0.184311
0.0600916
-0.0185443
-0.0666514
-0.0932157
-0.104388
-0.104706
-0.0975471
-0.0854569
-0.0701717
-0.0526135
-0.0330506
-0.0112688
0.0133567
0.0417582
0.0750847
0.114995
0.164329
0.229713
0.330569
0.403905
0.401463
0.322858
0.214123
0.140104
0.0810744
0.0300765
-0.0160447
-0.0594739
-0.101995
-0.14529
-0.190972
-0.240449
-0.294918
-0.355356
-0.42239
-0.496377
-0.577835
-0.667678
-0.767924
-0.883203
-1.0232
-1.20866
-1.43522
-1.14989
0.325048
1.11782
0.70222
0.35054
0.15447
0.0343586
-0.0407997
-0.0858703
-0.10979
-0.118735
-0.117267
-0.108773
-0.0957625
-0.0798951
-0.0619843
-0.0421545
-0.0200458
0.00507268
0.0341998
0.0684807
0.109492
0.159971
0.226497
0.32848
0.402759
0.407795
0.322936
0.216483
0.1443
0.0880951
0.0404793
-0.00209865
-0.0419536
-0.0808415
-0.120379
-0.162149
-0.207523
-0.25771
-0.313798
-0.376565
-0.44652
-0.524232
-0.610452
-0.706632
-0.816252
-0.946965
-1.11492
-1.30475
-0.977848
0.433948
1.10318
0.652696
0.306827
0.117212
0.0024504
-0.0678136
-0.108235
-0.127951
-0.133449
-0.129481
-0.119455
-0.105775
-0.0899591
-0.0726376
-0.0536441
-0.0322625
-0.0074312
0.0222129
0.0581009
0.101788
0.155427
0.22491
0.330324
0.410431
0.306989
0.240179
0.153825
0.0934446
0.0451164
0.00370772
-0.0328452
-0.0659844
-0.0969989
-0.127289
-0.158339
-0.19147
-0.227913
-0.268884
-0.315454
-0.368622
-0.429597
-0.499907
-0.58173
-0.678494
-0.795
-0.934494
-1.04576
-0.667595
0.524386
0.992226
0.54709
0.212553
0.0361316
-0.0612032
-0.114813
-0.141843
-0.152043
-0.151616
-0.144725
-0.134166
-0.12182
-0.108874
-0.0958174
-0.0824364
-0.0680264
-0.0515163
-0.0312216
-0.00478276
0.031092
0.08151
0.157251
0.274939
0.36126
0.117109
0.0716547
0.0140202
-0.0167455
-0.0497399
-0.0813925
-0.109146
-0.132337
-0.15134
-0.16726
-0.181515
-0.195349
-0.209977
-0.226724
-0.246921
-0.272093
-0.304336
-0.34645
-0.402144
-0.476064
-0.57355
-0.709682
-0.905639
-0.563984
0.781906
1.10654
0.348247
-0.000365113
-0.121623
-0.171281
-0.188941
-0.19087
-0.185032
-0.175506
-0.164608
-0.153716
-0.143764
-0.135463
-0.12921
-0.12497
-0.122489
-0.121264
-0.119746
-0.114749
-0.100747
-0.0688672
-0.000268714
0.146379
0.257659
-8.3611
-5.89484
-2.83797
-2.14672
-1.68185
-1.35907
-1.12812
-0.956023
-0.822863
-0.716691
-0.629671
-0.556439
-0.493437
-0.438288
-0.389587
-0.346715
-0.309903
-0.280173
-0.259994
-0.254082
-0.270043
-0.341043
0.364925
-2.84698
-5.74016
-7.7272
-5.2344
-2.5793
-1.66866
-1.19331
-0.909175
-0.725278
-0.599052
-0.508376
-0.440995
-0.389467
-0.349025
-0.316584
-0.290109
-0.268281
-0.250403
-0.236425
-0.227001
-0.224136
-0.232353
-0.261117
-0.337039
-0.355382
-2.4913
-4.97066
-6.58458
-4.51942
-1.47518
-0.927611
-0.670886
-0.511065
-0.405473
-0.333751
-0.28421
-0.249659
-0.225444
-0.208492
-0.196766
-0.188845
-0.183694
-0.180736
-0.179798
-0.181149
-0.186018
-0.197527
-0.221931
-0.275999
-0.00929491
-1.88802
-4.02221
-20.5429
-12.1862
-4.02726
-2.00937
-1.19612
-0.792346
-0.569741
-0.438105
-0.356563
-0.304659
-0.271418
-0.25074
-0.239069
-0.234289
-0.235256
-0.241633
-0.253757
-0.272848
-0.301595
-0.345642
-0.416729
-0.544692
-0.555616
-6.11307
-11.11
-35.01
-22.2114
-7.76623
-4.01114
-2.28684
-1.42369
-0.964531
-0.70464
-0.550347
-0.455883
-0.397825
-0.363941
-0.34736
-0.344348
-0.353306
-0.374037
-0.407496
-0.456247
-0.524916
-0.622095
-0.764533
-0.996963
0.605678
-11.3919
-18.3767
