TITLE = "AGPS 3D Finite Element Data"
VARIABLES = "x", "y", "z", "cp1"
ZONE T="MIXED", N=980, E=912, DATAPACKING=BLOCK, ZONETYPE=FEQUADRILATERAL
100.0 99.5722 98.2963 96.194 93.3013 89.6677 85.3553 80.4381 75.0 69.1342 62.941 56.5263 50.0 43.4737 37.059 30.8658 25.0 19.5619 14.6447 10.3323 6.6987 3.806 1.7037 0.4278 0.0 0.4278 1.7037 3.806 6.6987 10.3323 14.6447 19.5619 25.0 30.8658 37.059 43.4737 50.0 56.5263 62.941 69.1342 75.0 80.4381 85.3553 89.6677 93.3013 96.194 98.2963 99.5722 100.0 100.0 99.5722 98.2963 96.194 93.3013 89.6677 85.3553 80.4381 75.0 69.1342 62.941 56.5263 50.0 43.4737 37.059 30.8658 25.0 19.5619 14.6447 10.3323 6.6987 3.806 1.7037 0.4278 0.0 0.4278 1.7037 3.806 6.6987 10.3323 14.6447 19.5619 25.0 30.8658 37.059 43.4737 50.0 56.5263 62.941 69.1342 75.0 80.4381 85.3553 89.6677 93.3013 96.194 98.2963 99.5722 100.0 100.0 99.5722 98.2963 96.194 93.3013 89.6677 85.3553 80.4381 75.0 69.1342 62.941 56.5263 50.0 43.4737 37.059 30.8658 25.0 19.5619 14.6447 10.3323 6.6987 3.806 1.7037 0.4278 0.0 0.4278 1.7037 3.806 6.6987 10.3323 14.6447 19.5619 25.0 30.8658 37.059 43.4737 50.0 56.5263 62.941 69.1342 75.0 80.4381 85.3553 89.6677 93.3013 96.194 98.2963 99.5722 100.0 100.0 99.5722 98.2963 96.194 93.3013 89.6677 85.3553 80.4381 75.0 69.1342 62.941 56.5263 50.0 43.4737 37.059 30.8658 25.0 19.5619 14.6447 10.3323 6.6987 3.806 1.7037 0.4278 0.0 0.4278 1.7037 3.806 6.6987 10.3323 14.6447 19.5619 25.0 30.8658 37.059 43.4737 50.0 56.5263 62.941 69.1342 75.0 80.4381 85.3553 89.6677 93.3013 96.194 98.2963 99.5722 100.0 100.0 99.5722 98.2963 96.194 93.3013 89.6677 85.3553 80.4381 75.0 69.1342 62.941 56.5263 50.0 43.4737 37.059 30.8658 25.0 19.5619 14.6447 10.3323 6.6987 3.806 1.7037 0.4278 0.0 0.4278 1.7037 3.806 6.6987 10.3323 14.6447 19.5619 25.0 30.8658 37.059 43.4737 50.0 56.5263 62.941 69.1342 75.0 80.4381 85.3553 89.6677 93.3013 96.194 98.2963 99.5722 100.0 100.0 99.5722 98.2963 96.194 93.3013 89.6677 85.3553 80.4381 75.0 69.1342 62.941 56.5263 50.0 43.4737 37.059 30.8658 25.0 19.5619 14.6447 10.3323 6.6987 3.806 1.7037 0.4278 0.0 0.4278 1.7037 3.806 6.6987 10.3323 14.6447 19.5619 25.0 30.8658 37.059 43.4737 50.0 56.5263 62.941 69.1342 75.0 80.4381 85.3553 89.6677 93.3013 96.194 98.2963 99.5722 100.0 100.0 99.5722 98.2963 96.194 93.3013 89.6677 85.3553 80.4381 75.0 69.1342 62.941 56.5263 50.0 43.4737 37.059 30.8658 25.0 19.5619 14.6447 10.3323 6.6987 3.806 1.7037 0.4278 0.0 0.4278 1.7037 3.806 6.6987 10.3323 14.6447 19.5619 25.0 30.8658 37.059 43.4737 50.0 56.5263 62.941 69.1342 75.0 80.4381 85.3553 89.6677 93.3013 96.194 98.2963 99.5722 100.0 100.0 99.5722 98.2963 96.194 93.3013 89.6677 85.3553 80.4381 75.0 69.1342 62.941 56.5263 50.0 43.4737 37.059 30.8658 25.0 19.5619 14.6447 10.3323 6.6987 3.806 1.7037 0.4278 0.0 0.4278 1.7037 3.806 6.6987 10.3323 14.6447 19.5619 25.0 30.8658 37.059 43.4737 50.0 56.5263 62.941 69.1342 75.0 80.4381 85.3553 89.6677 93.3013 96.194 98.2963 99.5722 100.0 100.0 99.5722 98.2963 96.194 93.3013 89.6677 85.3553 80.4381 75.0 69.1342 62.941 56.5263 50.0 43.4737 37.059 30.8658 25.0 19.5619 14.6447 10.3323 6.6987 3.806 1.7037 0.4278 0.0 0.4278 1.7037 3.806 6.6987 10.3323 14.6447 19.5619 25.0 30.8658 37.059 43.4737 50.0 56.5263 62.941 69.1342 75.0 80.4381 85.3553 89.6677 93.3013 96.194 98.2963 99.5722 100.0 100.0 99.5722 98.2963 96.194 93.3013 89.6677 85.3553 80.4381 75.0 69.1342 62.941 56.5263 50.0 43.4737 37.059 30.8658 25.0 19.5619 14.6447 10.3323 6.6987 3.806 1.7037 0.4278 0.0 0.4278 1.7037 3.806 6.6987 10.3323 14.6447 19.5619 25.0 30.8658 37.059 43.4737 50.0 56.5263 62.941 69.1342 75.0 80.4381 85.3553 89.6677 93.3013 96.194 98.2963 99.5722 100.0 100.0 99.5722 98.2963 96.194 93.3013 89.6677 85.3553 80.4381 75.0 69.1342 62.941 56.5263 50.0 43.4737 37.059 30.8658 25.0 19.5619 14.6447 10.3323 6.6987 3.806 1.7037 0.4278 0.0 0.4278 1.7037 3.806 6.6987 10.3323 14.6447 19.5619 25.0 30.8658 37.059 43.4737 50.0 56.5263 62.941 69.1342 75.0 80.4381 85.3553 89.6677 93.3013 96.194 98.2963 99.5722 100.0 100.0 99.5722 98.2963 96.194 93.3013 89.6677 85.3553 80.4381 75.0 69.1342 62.941 56.5263 50.0 43.4737 37.059 30.8658 25.0 19.5619 14.6447 10.3323 6.6987 3.806 1.7037 0.4278 0.0 0.4278 1.7037 3.806 6.6987 10.3323 14.6447 19.5619 25.0 30.8658 37.059 43.4737 50.0 56.5263 62.941 69.1342 75.0 80.4381 85.3553 89.6677 93.3013 96.194 98.2963 99.5722 100.0 100.0 99.5722 98.2963 96.194 93.3013 89.6677 85.3553 80.4381 75.0 69.1342 62.941 56.5263 50.0 43.4737 37.059 30.8658 25.0 19.5619 14.6447 10.3323 6.6987 3.806 1.7037 0.4278 0.0 0.4278 1.7037 3.806 6.6987 10.3323 14.6447 19.5619 25.0 30.8658 37.059 43.4737 50.0 56.5263 62.941 69.1342 75.0 80.4381 85.3553 89.6677 93.3013 96.194 98.2963 99.5722 100.0 100.0 99.5722 98.2963 96.194 93.3013 89.6677 85.3553 80.4381 75.0 69.1342 62.941 56.5263 50.0 43.4737 37.059 30.8658 25.0 19.5619 14.6447 10.3323 6.6987 3.806 1.7037 0.4278 0.0 0.4278 1.7037 3.806 6.6987 10.3323 14.6447 19.5619 25.0 30.8658 37.059 43.4737 50.0 56.5263 62.941 69.1342 75.0 80.4381 85.3553 89.6677 93.3013 96.194 98.2963 99.5722 100.0 100.0 99.5722 98.2963 96.194 93.3013 89.6677 85.3553 80.4381 75.0 69.1342 62.941 56.5263 50.0 43.4737 37.059 30.8658 25.0 19.5619 14.6447 10.3323 6.6987 3.806 1.7037 0.4278 0.0 0.4278 1.7037 3.806 6.6987 10.3323 14.6447 19.5619 25.0 30.8658 37.059 43.4737 50.0 56.5263 62.941 69.1342 75.0 80.4381 85.3553 89.6677 93.3013 96.194 98.2963 99.5722 100.0 100.0 99.5722 98.2963 96.194 93.3013 89.6677 85.3553 80.4381 75.0 69.1342 62.941 56.5263 50.0 43.4737 37.059 30.8658 25.0 19.5619 14.6447 10.3323 6.6987 3.806 1.7037 0.4278 0.0 0.4278 1.7037 3.806 6.6987 10.3323 14.6447 19.5619 25.0 30.8658 37.059 43.4737 50.0 56.5263 62.941 69.1342 75.0 80.4381 85.3553 89.6677 93.3013 96.194 98.2963 99.5722 100.0 100.0 99.5722 98.2963 96.194 93.3013 89.6677 85.3553 80.4381 75.0 69.1342 62.941 56.5263 50.0 43.4737 37.059 30.8658 25.0 19.5619 14.6447 10.3323 6.6987 3.806 1.7037 0.4278 0.0 0.4278 1.7037 3.806 6.6987 10.3323 14.6447 19.5619 25.0 30.8658 37.059 43.4737 50.0 56.5263 62.941 69.1342 75.0 80.4381 85.3553 89.6677 93.3013 96.194 98.2963 99.5722 100.0 100.0 99.5722 98.2963 96.194 93.3013 89.6677 85.3553 80.4381 75.0 69.1342 62.941 56.5263 50.0 43.4737 37.059 30.8658 25.0 19.5619 14.6447 10.3323 6.6987 3.806 1.7037 0.4278 0.0 0.4278 1.7037 3.806 6.6987 10.3323 14.6447 19.5619 25.0 30.8658 37.059 43.4737 50.0 56.5263 62.941 69.1342 75.0 80.4381 85.3553 89.6677 93.3013 96.194 98.2963 99.5722 100.0 100.0 99.5722 98.2963 96.194 93.3013 89.6677 85.3553 80.4381 75.0 69.1342 62.941 56.5263 50.0 43.4737 37.059 30.8658 25.0 19.5619 14.6447 10.3323 6.6987 3.806 1.7037 0.4278 0.0 0.4278 1.7037 3.806 6.6987 10.3323 14.6447 19.5619 25.0 30.8658 37.059 43.4737 50.0 56.5263 62.941 69.1342 75.0 80.4381 85.3553 89.6677 93.3013 96.194 98.2963 99.5722 100.0 100.0 99.5722 98.2963 96.194 93.3013 89.6677 85.3553 80.4381 75.0 69.1342 62.941 56.5263 50.0 43.4737 37.059 30.8658 25.0 19.5619 14.6447 10.3323 6.6987 3.806 1.7037 0.4278 0.0 0.4278 1.7037 3.806 6.6987 10.3323 14.6447 19.5619 25.0 30.8658 37.059 43.4737 50.0 56.5263 62.941 69.1342 75.0 80.4381 85.3553 89.6677 93.3013 96.194 98.2963 99.5722 100.0
0.0 0.0 0.0 0.0 0.0 0.0 0.0 0.0 0.0 0.0 0.0 0.0 0.0 0.0 0.0 0.0 0.0 0.0 0.0 0.0 0.0 0.0 0.0 0.0 0.0 0.0 0.0 0.0 0.0 0.0 0.0 0.0 0.0 0.0 0.0 0.0 0.0 0.0 0.0 0.0 0.0 0.0 0.0 0.0 0.0 0.0 0.0 0.0 0.0 15.7895 15.7895 15.7895 15.7895 15.7895 15.7895 15.7895 15.7895 15.7895 15.7895 15.7895 15.7895 15.7895 15.7895 15.7895 15.7895 15.7895 15.7895 15.7895 15.7895 15.7895 15.7895 15.7895 15.7895 15.7895 15.7895 15.7895 15.7895 15.7895 15.7895 15.7895 15.7895 15.7895 15.7895 15.7895 15.7895 15.7895 15.7895 15.7895 15.7895 15.7895 15.7895 15.7895 15.7895 15.7895 15.7895 15.7895 15.7895 15.7895 31.5789 31.5789 31.5789 31.5789 31.5789 31.5789 31.5789 31.5789 31.5789 31.5789 31.5789 31.5789 31.5789 31.5789 31.5789 31.5789 31.5789 31.5789 31.5789 31.5789 31.5789 31.5789 31.5789 31.5789 31.5789 31.5789 31.5789 31.5789 31.5789 31.5789 31.5789 31.5789 31.5789 31.5789 31.5789 31.5789 31.5789 31.5789 31.5789 31.5789 31.5789 31.5789 31.5789 31.5789 31.5789 31.5789 31.5789 31.5789 31.5789 47.3684 47.3684 47.3684 47.3684 47.3684 47.3684 47.3684 47.3684 47.3684 47.3684 47.3684 47.3684 47.3684 47.3684 47.3684 47.3684 47.3684 47.3684 47.3684 47.3684 47.3684 47.3684 47.3684 47.3684 47.3684 47.3684 47.3684 47.3684 47.3684 47.3684 47.3684 47.3684 47.3684 47.3684 47.3684 47.3684 47.3684 47.3684 47.3684 47.3684 47.3684 47.3684 47.3684 47.3684 47.3684 47.3684 47.3684 47.3684 47.3684 63.1579 63.1579 63.1579 63.1579 63.1579 63.1579 63.1579 63.1579 63.1579 63.1579 63.1579 63.1579 63.1579 63.1579 63.1579 63.1579 63.1579 63.1579 63.1579 63.1579 63.1579 63.1579 63.1579 63.1579 63.1579 63.1579 63.1579 63.1579 63.1579 63.1579 63.1579 63.1579 63.1579 63.1579 63.1579 63.1579 63.1579 63.1579 63.1579 63.1579 63.1579 63.1579 63.1579 63.1579 63.1579 63.1579 63.1579 63.1579 63.1579 78.9474 78.9474 78.9474 78.9474 78.9474 78.9474 78.9474 78.9474 78.9474 78.9474 78.9474 78.9474 78.9474 78.9474 78.9474 78.9474 78.9474 78.9474 78.9474 78.9474 78.9474 78.9474 78.9474 78.9474 78.9474 78.9474 78.9474 78.9474 78.9474 78.9474 78.9474 78.9474 78.9474 78.9474 78.9474 78.9474 78.9474 78.9474 78.9474 78.9474 78.9474 78.9474 78.9474 78.9474 78.9474 78.9474 78.9474 78.9474 78.9474 94.7368 94.7368 94.7368 94.7368 94.7368 94.7368 94.7368 94.7368 94.7368 94.7368 94.7368 94.7368 94.7368 94.7368 94.7368 94.7368 94.7368 94.7368 94.7368 94.7368 94.7368 94.7368 94.7368 94.7368 94.7368 94.7368 94.7368 94.7368 94.7368 94.7368 94.7368 94.7368 94.7368 94.7368 94.7368 94.7368 94.7368 94.7368 94.7368 94.7368 94.7368 94.7368 94.7368 94.7368 94.7368 94.7368 94.7368 94.7368 94.7368 110.526 110.526 110.526 110.526 110.526 110.526 110.526 110.526 110.526 110.526 110.526 110.526 110.526 110.526 110.526 110.526 110.526 110.526 110.526 110.526 110.526 110.526 110.526 110.526 110.526 110.526 110.526 110.526 110.526 110.526 110.526 110.526 110.526 110.526 110.526 110.526 110.526 110.526 110.526 110.526 110.526 110.526 110.526 110.526 110.526 110.526 110.526 110.526 110.526 126.316 126.316 126.316 126.316 126.316 126.316 126.316 126.316 126.316 126.316 126.316 126.316 126.316 126.316 126.316 126.316 126.316 126.316 126.316 126.316 126.316 126.316 126.316 126.316 126.316 126.316 126.316 126.316 126.316 126.316 126.316 126.316 126.316 126.316 126.316 126.316 126.316 126.316 126.316 126.316 126.316 126.316 126.316 126.316 126.316 126.316 126.316 126.316 126.316 142.105 142.105 142.105 142.105 142.105 142.105 142.105 142.105 142.105 142.105 142.105 142.105 142.105 142.105 142.105 142.105 142.105 142.105 142.105 142.105 142.105 142.105 142.105 142.105 142.105 142.105 142.105 142.105 142.105 142.105 142.105 142.105 142.105 142.105 142.105 142.105 142.105 142.105 142.105 142.105 142.105 142.105 142.105 142.105 142.105 142.105 142.105 142.105 142.105 157.895 157.895 157.895 157.895 157.895 157.895 157.895 157.895 157.895 157.895 157.895 157.895 157.895 157.895 157.895 157.895 157.895 157.895 157.895 157.895 157.895 157.895 157.895 157.895 157.895 157.895 157.895 157.895 157.895 157.895 157.895 157.895 157.895 157.895 157.895 157.895 157.895 157.895 157.895 157.895 157.895 157.895 157.895 157.895 157.895 157.895 157.895 157.895 157.895 173.684 173.684 173.684 173.684 173.684 173.684 173.684 173.684 173.684 173.684 173.684 173.684 173.684 173.684 173.684 173.684 173.684 173.684 173.684 173.684 173.684 173.684 173.684 173.684 173.684 173.684 173.684 173.684 173.684 173.684 173.684 173.684 173.684 173.684 173.684 173.684 173.684 173.684 173.684 173.684 173.684 173.684 173.684 173.684 173.684 173.684 173.684 173.684 173.684 189.474 189.474 189.474 189.474 189.474 189.474 189.474 189.474 189.474 189.474 189.474 189.474 189.474 189.474 189.474 189.474 189.474 189.474 189.474 189.474 189.474 189.474 189.474 189.474 189.474 189.474 189.474 189.474 189.474 189.474 189.474 189.474 189.474 189.474 189.474 189.474 189.474 189.474 189.474 189.474 189.474 189.474 189.474 189.474 189.474 189.474 189.474 189.474 189.474 205.263 205.263 205.263 205.263 205.263 205.263 205.263 205.263 205.263 205.263 205.263 205.263 205.263 205.263 205.263 205.263 205.263 205.263 205.263 205.263 205.263 205.263 205.263 205.263 205.263 205.263 205.263 205.263 205.263 205.263 205.263 205.263 205.263 205.263 205.263 205.263 205.263 205.263 205.263 205.263 205.263 205.263 205.263 205.263 205.263 205.263 205.263 205.263 205.263 221.053 221.053 221.053 221.053 221.053 221.053 221.053 221.053 221.053 221.053 221.053 221.053 221.053 221.053 221.053 221.053 221.053 221.053 221.053 221.053 221.053 221.053 221.053 221.053 221.053 221.053 221.053 221.053 221.053 221.053 221.053 221.053 221.053 221.053 221.053 221.053 221.053 221.053 221.053 221.053 221.053 221.053 221.053 221.053 221.053 221.053 221.053 221.053 221.053 236.842 236.842 236.842 236.842 236.842 236.842 236.842 236.842 236.842 236.842 236.842 236.842 236.842 236.842 236.842 236.842 236.842 236.842 236.842 236.842 236.842 236.842 236.842 236.842 236.842 236.842 236.842 236.842 236.842 236.842 236.842 236.842 236.842 236.842 236.842 236.842 236.842 236.842 236.842 236.842 236.842 236.842 236.842 236.842 236.842 236.842 236.842 236.842 236.842 252.632 252.632 252.632 252.632 252.632 252.632 252.632 252.632 252.632 252.632 252.632 252.632 252.632 252.632 252.632 252.632 252.632 252.632 252.632 252.632 252.632 252.632 252.632 252.632 252.632 252.632 252.632 252.632 252.632 252.632 252.632 252.632 252.632 252.632 252.632 252.632 252.632 252.632 252.632 252.632 252.632 252.632 252.632 252.632 252.632 252.632 252.632 252.632 252.632 268.421 268.421 268.421 268.421 268.421 268.421 268.421 268.421 268.421 268.421 268.421 268.421 268.421 268.421 268.421 268.421 268.421 268.421 268.421 268.421 268.421 268.421 268.421 268.421 268.421 268.421 268.421 268.421 268.421 268.421 268.421 268.421 268.421 268.421 268.421 268.421 268.421 268.421 268.421 268.421 268.421 268.421 268.421 268.421 268.421 268.421 268.421 268.421 268.421 284.211 284.211 284.211 284.211 284.211 284.211 284.211 284.211 284.211 284.211 284.211 284.211 284.211 284.211 284.211 284.211 284.211 284.211 284.211 284.211 284.211 284.211 284.211 284.211 284.211 284.211 284.211 284.211 284.211 284.211 284.211 284.211 284.211 284.211 284.211 284.211 284.211 284.211 284.211 284.211 284.211 284.211 284.211 284.211 284.211 284.211 284.211 284.211 284.211 300.0 300.0 300.0 300.0 300.0 300.0 300.0 300.0 300.0 300.0 300.0 300.0 300.0 300.0 300.0 300.0 300.0 300.0 300.0 300.0 300.0 300.0 300.0 300.0 300.0 300.0 300.0 300.0 300.0 300.0 300.0 300.0 300.0 300.0 300.0 300.0 300.0 300.0 300.0 300.0 300.0 300.0 300.0 300.0 300.0 300.0 300.0 300.0 300.0
0.0 0.062 0.2449 0.5399 0.9332 1.4076 1.9438 2.5217 3.1204 3.7188 4.2949 4.8255 5.2861 5.6514 5.8965 5.9988 5.9408 5.7114 5.3083 4.7379 4.0145 3.158 2.1904 1.1324 0.0 -1.1324 -2.1904 -3.158 -4.0145 -4.7379 -5.3083 -5.7114 -5.9408 -5.9988 -5.8965 -5.6514 -5.2861 -4.8255 -4.2949 -3.7188 -3.1204 -2.5217 -1.9438 -1.4076 -0.9332 -0.5399 -0.2449 -0.062 0.0 0.0 0.062 0.2449 0.5399 0.9332 1.4076 1.9438 2.5217 3.1204 3.7188 4.2949 4.8255 5.2861 5.6514 5.8965 5.9988 5.9408 5.7114 5.3083 4.7379 4.0145 3.158 2.1904 1.1324 0.0 -1.1324 -2.1904 -3.158 -4.0145 -4.7379 -5.3083 -5.7114 -5.9408 -5.9988 -5.8965 -5.6514 -5.2861 -4.8255 -4.2949 -3.7188 -3.1204 -2.5217 -1.9438 -1.4076 -0.9332 -0.5399 -0.2449 -0.062 0.0 0.0 0.062 0.2449 0.5399 0.9332 1.4076 1.9438 2.5217 3.1204 3.7188 4.2949 4.8255 5.2861 5.6514 5.8965 5.9988 5.9408 5.7114 5.3083 4.7379 4.0145 3.158 2.1904 1.1324 0.0 -1.1324 -2.1904 -3.158 -4.0145 -4.7379 -5.3083 -5.7114 -5.9408 -5.9988 -5.8965 -5.6514 -5.2861 -4.8255 -4.2949 -3.7188 -3.1204 -2.5217 -1.9438 -1.4076 -0.9332 -0.5399 -0.2449 -0.062 0.0 0.0 0.062 0.2449 0.5399 0.9332 1.4076 1.9438 2.5217 3.1204 3.7188 4.2949 4.8255 5.2861 5.6514 5.8965 5.9988 5.9408 5.7114 5.3083 4.7379 4.0145 3.158 2.1904 1.1324 0.0 -1.1324 -2.1904 -3.158 -4.0145 -4.7379 -5.3083 -5.7114 -5.9408 -5.9988 -5.8965 -5.6514 -5.2861 -4.8255 -4.2949 -3.7188 -3.1204 -2.5217 -1.9438 -1.4076 -0.9332 -0.5399 -0.2449 -0.062 0.0 0.0 0.062 0.2449 0.5399 0.9332 1.4076 1.9438 2.5217 3.1204 3.7188 4.2949 4.8255 5.2861 5.6514 5.8965 5.9988 5.9408 5.7114 5.3083 4.7379 4.0145 3.158 2.1904 1.1324 0.0 -1.1324 -2.1904 -3.158 -4.0145 -4.7379 -5.3083 -5.7114 -5.9408 -5.9988 -5.8965 -5.6514 -5.2861 -4.8255 -4.2949 -3.7188 -3.1204 -2.5217 -1.9438 -1.4076 -0.9332 -0.5399 -0.2449 -0.062 0.0 0.0 0.062 0.2449 0.5399 0.9332 1.4076 1.9438 2.5217 3.1204 3.7188 4.2949 4.8255 5.2861 5.6514 5.8965 5.9988 5.9408 5.7114 5.3083 4.7379 4.0145 3.158 2.1904 1.1324 0.0 -1.1324 -2.1904 -3.158 -4.0145 -4.7379 -5.3083 -5.7114 -5.9408 -5.9988 -5.8965 -5.6514 -5.2861 -4.8255 -4.2949 -3.7188 -3.1204 -2.5217 -1.9438 -1.4076 -0.9332 -0.5399 -0.2449 -0.062 0.0 0.0 0.062 0.2449 0.5399 0.9332 1.4076 1.9438 2.5217 3.1204 3.7188 4.2949 4.8255 5.2861 5.6514 5.8965 5.9988 5.9408 5.7114 5.3083 4.7379 4.0145 3.158 2.1904 1.1324 0.0 -1.1324 -2.1904 -3.158 -4.0145 -4.7379 -5.3083 -5.7114 -5.9408 -5.9988 -5.8965 -5.6514 -5.2861 -4.8255 -4.2949 -3.7188 -3.1204 -2.5217 -1.9438 -1.4076 -0.9332 -0.5399 -0.2449 -0.062 0.0 0.0 0.062 0.2449 0.5399 0.9332 1.4076 1.9438 2.5217 3.1204 3.7188 4.2949 4.8255 5.2861 5.6514 5.8965 5.9988 5.9408 5.7114 5.3083 4.7379 4.0145 3.158 2.1904 1.1324 0.0 -1.1324 -2.1904 -3.158 -4.0145 -4.7379 -5.3083 -5.7114 -5.9408 -5.9988 -5.8965 -5.6514 -5.2861 -4.8255 -4.2949 -3.7188 -3.1204 -2.5217 -1.9438 -1.4076 -0.9332 -0.5399 -0.2449 -0.062 0.0 0.0 0.062 0.2449 0.5399 0.9332 1.4076 1.9438 2.5217 3.1204 3.7188 4.2949 4.8255 5.2861 5.6514 5.8965 5.9988 5.9408 5.7114 5.3083 4.7379 4.0145 3.158 2.1904 1.1324 0.0 -1.1324 -2.1904 -3.158 -4.0145 -4.7379 -5.3083 -5.7114 -5.9408 -5.9988 -5.8965 -5.6514 -5.2861 -4.8255 -4.2949 -3.7188 -3.1204 -2.5217 -1.9438 -1.4076 -0.9332 -0.5399 -0.2449 -0.062 0.0 0.0 0.062 0.2449 0.5399 0.9332 1.4076 1.9438 2.5217 3.1204 3.7188 4.2949 4.8255 5.2861 5.6514 5.8965 5.9988 5.9408 5.7114 5.3083 4.7379 4.0145 3.158 2.1904 1.1324 0.0 -1.1324 -2.1904 -3.158 -4.0145 -4.7379 -5.3083 -5.7114 -5.9408 -5.9988 -5.8965 -5.6514 -5.2861 -4.8255 -4.2949 -3.7188 -3.1204 -2.5217 -1.9438 -1.4076 -0.9332 -0.5399 -0.2449 -0.062 0.0 0.0 0.062 0.2449 0.5399 0.9332 1.4076 1.9438 2.5217 3.1204 3.7188 4.2949 4.8255 5.2861 5.6514 5.8965 5.9988 5.9408 5.7114 5.3083 4.7379 4.0145 3.158 2.1904 1.1324 0.0 -1.1324 -2.1904 -3.158 -4.0145 -4.7379 -5.3083 -5.7114 -5.9408 -5.9988 -5.8965 -5.6514 -5.2861 -4.8255 -4.2949 -3.7188 -3.1204 -2.5217 -1.9438 -1.4076 -0.9332 -0.5399 -0.2449 -0.062 0.0 0.0 0.062 0.2449 0.5399 0.9332 1.4076 1.9438 2.5217 3.1204 3.7188 4.2949 4.8255 5.2861 5.6514 5.8965 5.9988 5.9408 5.7114 5.3083 4.7379 4.0145 3.158 2.1904 1.1324 0.0 -1.1324 -2.1904 -3.158 -4.0145 -4.7379 -5.3083 -5.7114 -5.9408 -5.9988 -5.8965 -5.6514 -5.2861 -4.8255 -4.2949 -3.7188 -3.1204 -2.5217 -1.9438 -1.4076 -0.9332 -0.5399 -0.2449 -0.062 0.0 0.0 0.062 0.2449 0.5399 0.9332 1.4076 1.9438 2.5217 3.1204 3.7188 4.2949 4.8255 5.2861 5.6514 5.8965 5.9988 5.9408 5.7114 5.3083 4.7379 4.0145 3.158 2.1904 1.1324 0.0 -1.1324 -2.1904 -3.158 -4.0145 -4.7379 -5.3083 -5.7114 -5.9408 -5.9988 -5.8965 -5.6514 -5.2861 -4.8255 -4.2949 -3.7188 -3.1204 -2.5217 -1.9438 -1.4076 -0.9332 -0.5399 -0.2449 -0.062 0.0 0.0 0.062 0.2449 0.5399 0.9332 1.4076 1.9438 2.5217 3.1204 3.7188 4.2949 4.8255 5.2861 5.6514 5.8965 5.9988 5.9408 5.7114 5.3083 4.7379 4.0145 3.158 2.1904 1.1324 0.0 -1.1324 -2.1904 -3.158 -4.0145 -4.7379 -5.3083 -5.7114 -5.9408 -5.9988 -5.8965 -5.6514 -5.2861 -4.8255 -4.2949 -3.7188 -3.1204 -2.5217 -1.9438 -1.4076 -0.9332 -0.5399 -0.2449 -0.062 0.0 0.0 0.062 0.2449 0.5399 0.9332 1.4076 1.9438 2.5217 3.1204 3.7188 4.2949 4.8255 5.2861 5.6514 5.8965 5.9988 5.9408 5.7114 5.3083 4.7379 4.0145 3.158 2.1904 1.1324 0.0 -1.1324 -2.1904 -3.158 -4.0145 -4.7379 -5.3083 -5.7114 -5.9408 -5.9988 -5.8965 -5.6514 -5.2861 -4.8255 -4.2949 -3.7188 -3.1204 -2.5217 -1.9438 -1.4076 -0.9332 -0.5399 -0.2449 -0.062 0.0 0.0 0.062 0.2449 0.5399 0.9332 1.4076 1.9438 2.5217 3.1204 3.7188 4.2949 4.8255 5.2861 5.6514 5.8965 5.9988 5.9408 5.7114 5.3083 4.7379 4.0145 3.158 2.1904 1.1324 0.0 -1.1324 -2.1904 -3.158 -4.0145 -4.7379 -5.3083 -5.7114 -5.9408 -5.9988 -5.8965 -5.6514 -5.2861 -4.8255 -4.2949 -3.7188 -3.1204 -2.5217 -1.9438 -1.4076 -0.9332 -0.5399 -0.2449 -0.062 0.0 0.0 0.062 0.2449 0.5399 0.9332 1.4076 1.9438 2.5217 3.1204 3.7188 4.2949 4.8255 5.2861 5.6514 5.8965 5.9988 5.9408 5.7114 5.3083 4.7379 4.0145 3.158 2.1904 1.1324 0.0 -1.1324 -2.1904 -3.158 -4.0145 -4.7379 -5.3083 -5.7114 -5.9408 -5.9988 -5.8965 -5.6514 -5.2861 -4.8255 -4.2949 -3.7188 -3.1204 -2.5217 -1.9438 -1.4076 -0.9332 -0.5399 -0.2449 -0.062 0.0 0.0 0.062 0.2449 0.5399 0.9332 1.4076 1.9438 2.5217 3.1204 3.7188 4.2949 4.8255 5.2861 5.6514 5.8965 5.9988 5.9408 5.7114 5.3083 4.7379 4.0145 3.158 2.1904 1.1324 0.0 -1.1324 -2.1904 -3.158 -4.0145 -4.7379 -5.3083 -5.7114 -5.9408 -5.9988 -5.8965 -5.6514 -5.2861 -4.8255 -4.2949 -3.7188 -3.1204 -2.5217 -1.9438 -1.4076 -0.9332 -0.5399 -0.2449 -0.062 0.0 0.0 0.062 0.2449 0.5399 0.9332 1.4076 1.9438 2.5217 3.1204 3.7188 4.2949 4.8255 5.2861 5.6514 5.8965 5.9988 5.9408 5.7114 5.3083 4.7379 4.0145 3.158 2.1904 1.1324 0.0 -1.1324 -2.1904 -3.158 -4.0145 -4.7379 -5.3083 -5.7114 -5.9408 -5.9988 -5.8965 -5.6514 -5.2861 -4.8255 -4.2949 -3.7188 -3.1204 -2.5217 -1.9438 -1.4076 -0.9332 -0.5399 -0.2449 -0.062 0.0 0.0 0.062 0.2449 0.5399 0.9332 1.4076 1.9438 2.5217 3.1204 3.7188 4.2949 4.8255 5.2861 5.6514 5.8965 5.9988 5.9408 5.7114 5.3083 4.7379 4.0145 3.158 2.1904 1.1324 0.0 -1.1324 -2.1904 -3.158 -4.0145 -4.7379 -5.3083 -5.7114 -5.9408 -5.9988 -5.8965 -5.6514 -5.2861 -4.8255 -4.2949 -3.7188 -3.1204 -2.5217 -1.9438 -1.4076 -0.9332 -0.5399 -0.2449 -0.062 0.0