<?xml version="1.0"?>
<VTKFile type="UnstructuredGrid" version="1.0" byte_order="LittleEndian">
  <UnstructuredGrid>
    <Piece NumberOfPoints="39" NumberOfCells="24">
      <PointData Scalars="scalars">
        <DataArray type="Float32" Name="cp1" format="ascii">
-0.0122444 -0.00521567 0.00279373 0.00614956 0.00154573 -0.003728 -0.00164875 0.00710822 0.0157014 0.0142711 2.49142e-05 -0.0163787 -0.0275771 -0.00323809 -0.000962807 0.000635003 0.000636629 -0.000591036 -0.00104702 0.000385547 0.00247404 0.00377907 0.00325182 0.000845728 -0.00228388 -0.00527177 0.00593383 0.00433234 -0.000579131 -0.00452747 -0.00340517 0.000609499 0.00223819 -0.00171538 -0.00760285 -0.00731116 0.00221749 0.0131638 0.0174324
        </DataArray>
      </PointData>
      <Points>
        <DataArray type="Float32" Name="network8" NumberOfComponents="3" format="ascii">
8.5 0.0 0.45
8.5 0.1165 0.4347
8.5 0.225 0.3897
8.5 0.3182 0.3182
8.5 0.3897 0.225
8.5 0.4347 0.1165
8.5 0.45 0.0
8.5 0.4347 -0.1165
8.5 0.3897 -0.225
8.5 0.3182 -0.3182
8.5 0.225 -0.3897
8.5 0.1165 -0.4347
8.5 0.0 -0.45
8.5 0.0 0.225
8.5 0.0582 0.2173
8.5 0.1125 0.1949
8.5 0.1591 0.1591
8.5 0.1949 0.1125
8.5 0.2173 0.0582
8.5 0.225 0.0
8.5 0.2173 -0.0582
8.5 0.1949 -0.1125
8.5 0.1591 -0.1591
8.5 0.1125 -0.1949
8.5 0.0582 -0.2173
8.5 0.0 -0.225
8.5 0.0 0.0
8.5 0.0 0.0
8.5 0.0 0.0
8.5 0.0 0.0
8.5 0.0 0.0
8.5 0.0 0.0
8.5 0.0 0.0
8.5 0.0 0.0
8.5 0.0 0.0
8.5 0.0 0.0
8.5 0.0 0.0
8.5 0.0 0.0
8.5 0.0 0.0
        </DataArray>
      </Points>
      <Cells>
        <DataArray type="Int32" Name="connectivity" format="ascii">
0 13 14 1
1 14 15 2
2 15 16 3
3 16 17 4
4 17 18 5
5 18 19 6
6 19 20 7
7 20 21 8
8 21 22 9
9 22 23 10
10 23 24 11
11 24 25 12
13 26 27 14
14 27 28 15
15 28 29 16
16 29 30 17
17 30 31 18
18 31 32 19
19 32 33 20
20 33 34 21
21 34 35 22
22 35 36 23
23 36 37 24
24 37 38 25
        </DataArray>
        <DataArray type="Int32" Name="offsets" format="ascii">
4 8 12 16 20 24 28 32 36 40 44 48 52 56 60 64 68 72 76 80 84 88 92 96
        </DataArray>
        <DataArray type="Int32" Name="types" format="ascii">
9 9 9 9 9 9 9 9 9 9 9 9 9 9 9 9 9 9 9 9 9 9 9 9
        </DataArray>
      </Cells>
    </Piece>
  </UnstructuredGrid>
</VTKFile>
