<?xml version="1.0"?>
<VTKFile type="UnstructuredGrid" version="1.0" byte_order="LittleEndian">
  <UnstructuredGrid>
    <Piece NumberOfPoints="60" NumberOfCells="29">
      <PointData Scalars="scalars">
        <DataArray type="Float32" Name="cp1" format="ascii">
0.0 0.0 0.0 0.0 0.0 0.0 0.0 0.0 0.0 0.0 0.0 0.0 0.0 0.0 0.0 0.0 0.0 0.0 0.0 0.0 0.0 0.0 0.0 0.0 0.0 0.0 0.0 0.0 0.0 0.0 0.0 0.0 0.0 0.0 0.0 0.0 0.0 0.0 0.0 0.0 0.0 0.0 0.0 0.0 0.0 0.0 0.0 0.0 0.0 0.0 0.0 0.0 0.0 0.0 0.0 0.0 0.0 0.0 0.0 0.0
        </DataArray>
      </PointData>
      <Points>
        <DataArray type="Float32" Name="network9" NumberOfComponents="3" format="ascii">
7.098 0.5 0.0
115.465 0.5 0.0
7.098 0.5517 0.0
115.465 0.5517 0.0
7.098 0.6034 0.0
115.465 0.6034 0.0
7.098 0.6552 0.0
115.465 0.6552 0.0
7.098 0.7069 0.0
115.465 0.7069 0.0
7.098 0.7586 0.0
115.465 0.7586 0.0
7.098 0.8103 0.0
115.465 0.8103 0.0
7.098 0.8621 0.0
115.465 0.8621 0.0
7.098 0.9138 0.0
115.465 0.9138 0.0
7.098 0.9655 0.0
115.465 0.9655 0.0
7.098 1.0172 0.0
115.465 1.0172 0.0
7.098 1.069 0.0
115.465 1.069 0.0
7.098 1.1207 0.0
115.465 1.1207 0.0
7.098 1.1724 0.0
115.465 1.1724 0.0
7.098 1.2241 0.0
115.465 1.2241 0.0
7.098 1.2759 0.0
115.465 1.2759 0.0
7.098 1.3276 0.0
115.465 1.3276 0.0
7.098 1.3793 0.0
115.465 1.3793 0.0
7.098 1.431 0.0
115.465 1.431 0.0
7.098 1.4828 0.0
115.465 1.4828 0.0
7.098 1.5345 0.0
115.465 1.5345 0.0
7.098 1.5862 0.0
115.465 1.5862 0.0
7.098 1.6379 0.0
115.465 1.6379 0.0
7.098 1.6897 0.0
115.465 1.6897 0.0
7.098 1.7414 0.0
115.465 1.7414 0.0
7.098 1.7931 0.0
115.465 1.7931 0.0
7.098 1.8448 0.0
115.465 1.8448 0.0
7.098 1.8966 0.0
115.465 1.8966 0.0
7.098 1.9483 0.0
115.465 1.9483 0.0
7.098 2.0 0.0
115.465 2.0 0.0
        </DataArray>
      </Points>
      <Cells>
        <DataArray type="Int32" Name="connectivity" format="ascii">
0 2 3 1
2 4 5 3
4 6 7 5
6 8 9 7
8 10 11 9
10 12 13 11
12 14 15 13
14 16 17 15
16 18 19 17
18 20 21 19
20 22 23 21
22 24 25 23
24 26 27 25
26 28 29 27
28 30 31 29
30 32 33 31
32 34 35 33
34 36 37 35
36 38 39 37
38 40 41 39
40 42 43 41
42 44 45 43
44 46 47 45
46 48 49 47
48 50 51 49
50 52 53 51
52 54 55 53
54 56 57 55
56 58 59 57
        </DataArray>
        <DataArray type="Int32" Name="offsets" format="ascii">
4 8 12 16 20 24 28 32 36 40 44 48 52 56 60 64 68 72 76 80 84 88 92 96 100 104 108 112 116
        </DataArray>
        <DataArray type="Int32" Name="types" format="ascii">
9 9 9 9 9 9 9 9 9 9 9 9 9 9 9 9 9 9 9 9 9 9 9 9 9 9 9 9 9
        </DataArray>
      </Cells>
    </Piece>
  </UnstructuredGrid>
</VTKFile>
