<?xml version="1.0"?>
<VTKFile type="UnstructuredGrid" version="1.0" byte_order="LittleEndian">
  <UnstructuredGrid>
    <Piece NumberOfPoints="12" NumberOfCells="5">
      <PointData Scalars="scalars">
        <DataArray type="Float32" Name="cp1" format="ascii">
0.0 0.0 0.0 0.0 0.0 0.0 0.0 0.0 0.0 0.0 0.0 0.0
        </DataArray>
      </PointData>
      <Points>
        <DataArray type="Float32" Name="network12" NumberOfComponents="3" format="ascii">
7.098 0.5 0.0
115.465 0.5 0.0
7.3784 0.49 0.0
115.465 0.49 0.0
7.6588 0.48 0.0
115.465 0.48 0.0
7.9392 0.47 0.0
115.465 0.47 0.0
8.2196 0.46 0.0
115.465 0.46 0.0
8.5 0.45 0.0
115.465 0.45 0.0
        </DataArray>
      </Points>
      <Cells>
        <DataArray type="Int32" Name="connectivity" format="ascii">
0 2 3 1
2 4 5 3
4 6 7 5
6 8 9 7
8 10 11 9
        </DataArray>
        <DataArray type="Int32" Name="offsets" format="ascii">
4 8 12 16 20
        </DataArray>
        <DataArray type="Int32" Name="types" format="ascii">
9 9 9 9 9
        </DataArray>
      </Cells>
    </Piece>
  </UnstructuredGrid>
</VTKFile>
