<?xml version="1.0"?>
<VTKFile type="UnstructuredGrid" version="1.0" byte_order="LittleEndian">
  <UnstructuredGrid>
    <Piece NumberOfPoints="42" NumberOfCells="30">
      <PointData Scalars="scalars">
        <DataArray type="Float32" Name="cp1" format="ascii">
-0.0223773 -0.0312856 -0.0418811 -0.0284004 -0.0111875 -0.0104882 -0.028961 -0.0347263 -0.0362603 -0.0252411 -0.0147387 -0.0123259 -0.0447833 -0.0415717 -0.0314743 -0.0187668 -0.0159208 -0.0166759 -0.0681728 -0.0461599 -0.0221283 -0.0111234 -0.017216 -0.0224535 -0.0814894 -0.0405686 -0.0125273 -0.0095101 -0.018405 -0.0248778 -0.0686561 -0.027869 -0.0077259 -0.0128824 -0.0203555 -0.0254674 -0.0419449 -0.00688858 0.001296 -0.0158391 -0.0231488 -0.0268737
        </DataArray>
      </PointData>
      <Points>
        <DataArray type="Float32" Name="network7" NumberOfComponents="3" format="ascii">
7.098 0.0 -0.5
7.3784 0.0 -0.49
7.6588 0.0 -0.48
7.9392 0.0 -0.47
8.2196 0.0 -0.46
8.5 0.0 -0.45
7.098 0.1294 -0.483
7.3784 0.1268 -0.4733
7.6588 0.1242 -0.4636
7.9392 0.1216 -0.454
8.2196 0.1191 -0.4443
8.5 0.1165 -0.4347
7.098 0.25 -0.433
7.3784 0.245 -0.4244
7.6588 0.24 -0.4157
7.9392 0.235 -0.407
8.2196 0.23 -0.3984
8.5 0.225 -0.3897
7.098 0.3536 -0.3536
7.3784 0.3465 -0.3465
7.6588 0.3394 -0.3394
7.9392 0.3323 -0.3323
8.2196 0.3253 -0.3253
8.5 0.3182 -0.3182
7.098 0.433 -0.25
7.3784 0.4244 -0.245
7.6588 0.4157 -0.24
7.9392 0.407 -0.235
8.2196 0.3984 -0.23
8.5 0.3897 -0.225
7.098 0.483 -0.1294
7.3784 0.4733 -0.1268
7.6588 0.4636 -0.1242
7.9392 0.454 -0.1216
8.2196 0.4443 -0.1191
8.5 0.4347 -0.1165
7.098 0.5 0.0
7.3784 0.49 0.0
7.6588 0.48 0.0
7.9392 0.47 0.0
8.2196 0.46 0.0
8.5 0.45 0.0
        </DataArray>
      </Points>
      <Cells>
        <DataArray type="Int32" Name="connectivity" format="ascii">
0 6 7 1
1 7 8 2
2 8 9 3
3 9 10 4
4 10 11 5
6 12 13 7
7 13 14 8
8 14 15 9
9 15 16 10
10 16 17 11
12 18 19 13
13 19 20 14
14 20 21 15
15 21 22 16
16 22 23 17
18 24 25 19
19 25 26 20
20 26 27 21
21 27 28 22
22 28 29 23
24 30 31 25
25 31 32 26
26 32 33 27
27 33 34 28
28 34 35 29
30 36 37 31
31 37 38 32
32 38 39 33
33 39 40 34
34 40 41 35
        </DataArray>
        <DataArray type="Int32" Name="offsets" format="ascii">
4 8 12 16 20 24 28 32 36 40 44 48 52 56 60 64 68 72 76 80 84 88 92 96 100 104 108 112 116 120
        </DataArray>
        <DataArray type="Int32" Name="types" format="ascii">
9 9 9 9 9 9 9 9 9 9 9 9 9 9 9 9 9 9 9 9 9 9 9 9 9 9 9 9 9 9
        </DataArray>
      </Cells>
    </Piece>
  </UnstructuredGrid>
</VTKFile>
