<?xml version="1.0"?>
<VTKFile type="UnstructuredGrid" version="1.0" byte_order="LittleEndian">
  <UnstructuredGrid>
    <Piece NumberOfPoints="77" NumberOfCells="60">
      <PointData Scalars="scalars">
        <DataArray type="Float32" Name="cp1" format="ascii">
0.387051 0.329579 0.241986 0.109937 -0.00848845 -0.0900199 -0.128962 -0.118675 -0.0834984 -0.0621794 -0.0509148 0.366719 0.295131 0.204977 0.0898533 -0.0143132 -0.0870052 -0.120779 -0.111992 -0.0810369 -0.0593932 -0.0468847 0.333368 0.268548 0.183856 0.0737274 -0.0257164 -0.093881 -0.123435 -0.109598 -0.0744898 -0.0523518 -0.0409525 0.311215 0.249789 0.170155 0.0654227 -0.029291 -0.0932201 -0.11895 -0.102203 -0.0653822 -0.0433326 -0.0318659 0.296464 0.237524 0.1613 0.0605198 -0.0305632 -0.091122 -0.113733 -0.0946409 -0.0565595 -0.0346002 -0.0228721 0.288325 0.229802 0.155303 0.0587857 -0.0285154 -0.086333 -0.106957 -0.0882569 -0.0515044 -0.0292645 -0.0168314 0.285802 0.227939 0.157963 0.0563575 -0.0354344 -0.0943299 -0.11348 -0.0882444 -0.0446751 -0.0225332 -0.0125596
        </DataArray>
      </PointData>
      <Points>
        <DataArray type="Float32" Name="network2" NumberOfComponents="3" format="ascii">
0.0 0.0 0.0
0.4286 0.1401 0.0
0.8571 0.2657 0.0
1.2857 0.3667 0.0
1.7143 0.4382 0.0
2.1429 0.48 0.0
2.5714 0.4973 0.0
3.0 0.5 0.0
3.5 0.5 0.0
4.0 0.5 0.0
4.5 0.5 0.0
0.0 0.0 0.0
0.4286 0.1354 0.0363
0.8571 0.2567 0.0688
1.2857 0.3542 0.0949
1.7143 0.4232 0.1134
2.1429 0.4637 0.1242
2.5714 0.4803 0.1287
3.0 0.483 0.1294
3.5 0.483 0.1294
4.0 0.483 0.1294
4.5 0.483 0.1294
0.0 0.0 0.0
0.4286 0.1214 0.0701
0.8571 0.2301 0.1329
1.2857 0.3176 0.1834
1.7143 0.3794 0.2191
2.1429 0.4157 0.24
2.5714 0.4307 0.2486
3.0 0.433 0.25
3.5 0.433 0.25
4.0 0.433 0.25
4.5 0.433 0.25
0.0 0.0 0.0
0.4286 0.0991 0.0991
0.8571 0.1879 0.1879
1.2857 0.2593 0.2593
1.7143 0.3098 0.3098
2.1429 0.3394 0.3394
2.5714 0.3516 0.3516
3.0 0.3536 0.3536
3.5 0.3536 0.3536
4.0 0.3536 0.3536
4.5 0.3536 0.3536
0.0 0.0 0.0
0.4286 0.0701 0.1214
0.8571 0.1329 0.2301
1.2857 0.1834 0.3176
1.7143 0.2191 0.3794
2.1429 0.24 0.4157
2.5714 0.2486 0.4307
3.0 0.25 0.433
3.5 0.25 0.433
4.0 0.25 0.433
4.5 0.25 0.433
0.0 0.0 0.0
0.4286 0.0363 0.1354
0.8571 0.0688 0.2567
1.2857 0.0949 0.3542
1.7143 0.1134 0.4232
2.1429 0.1242 0.4637
2.5714 0.1287 0.4803
3.0 0.1294 0.483
3.5 0.1294 0.483
4.0 0.1294 0.483
4.5 0.1294 0.483
0.0 0.0 0.0
0.4286 0.0 0.1401
0.8571 0.0 0.2657
1.2857 0.0 0.3667
1.7143 0.0 0.4382
2.1429 0.0 0.48
2.5714 0.0 0.4973
3.0 0.0 0.5
3.5 0.0 0.5
4.0 0.0 0.5
4.5 0.0 0.5
        </DataArray>
      </Points>
      <Cells>
        <DataArray type="Int32" Name="connectivity" format="ascii">
0 11 12 1
1 12 13 2
2 13 14 3
3 14 15 4
4 15 16 5
5 16 17 6
6 17 18 7
7 18 19 8
8 19 20 9
9 20 21 10
11 22 23 12
12 23 24 13
13 24 25 14
14 25 26 15
15 26 27 16
16 27 28 17
17 28 29 18
18 29 30 19
19 30 31 20
20 31 32 21
22 33 34 23
23 34 35 24
24 35 36 25
25 36 37 26
26 37 38 27
27 38 39 28
28 39 40 29
29 40 41 30
30 41 42 31
31 42 43 32
33 44 45 34
34 45 46 35
35 46 47 36
36 47 48 37
37 48 49 38
38 49 50 39
39 50 51 40
40 51 52 41
41 52 53 42
42 53 54 43
44 55 56 45
45 56 57 46
46 57 58 47
47 58 59 48
48 59 60 49
49 60 61 50
50 61 62 51
51 62 63 52
52 63 64 53
53 64 65 54
55 66 67 56
56 67 68 57
57 68 69 58
58 69 70 59
59 70 71 60
60 71 72 61
61 72 73 62
62 73 74 63
63 74 75 64
64 75 76 65
        </DataArray>
        <DataArray type="Int32" Name="offsets" format="ascii">
4 8 12 16 20 24 28 32 36 40 44 48 52 56 60 64 68 72 76 80 84 88 92 96 100 104 108 112 116 120 124 128 132 136 140 144 148 152 156 160 164 168 172 176 180 184 188 192 196 200 204 208 212 216 220 224 228 232 236 240
        </DataArray>
        <DataArray type="Int32" Name="types" format="ascii">
9 9 9 9 9 9 9 9 9 9 9 9 9 9 9 9 9 9 9 9 9 9 9 9 9 9 9 9 9 9 9 9 9 9 9 9 9 9 9 9 9 9 9 9 9 9 9 9 9 9 9 9 9 9 9 9 9 9 9 9
        </DataArray>
      </Cells>
    </Piece>
  </UnstructuredGrid>
</VTKFile>
