<?xml version="1.0"?>
<VTKFile type="UnstructuredGrid" version="1.0" byte_order="LittleEndian">
  <UnstructuredGrid>
    <Piece NumberOfPoints="217" NumberOfCells="180">
      <PointData Scalars="scalars">
        <DataArray type="Float32" Name="cp1" format="ascii">
-0.099487 -0.0907849 -0.0824577 -0.0780321 -0.0759777 -0.0715498 -0.0673501 -0.0627808 -0.0578016 -0.0542734 -0.0497007 -0.0492983 -0.0512448 -0.0464076 -0.039717 -0.0354878 -0.032482 -0.0309551 -0.0288094 -0.0214445 -0.00985351 -0.0014387 0.000516412 -0.00275269 -0.0090985 -0.0128993 -0.0123212 -0.0121434 -0.0135941 -0.0144152 -0.0141574 -0.104484 -0.0962866 -0.0883154 -0.0835744 -0.0802653 -0.0762221 -0.0732062 -0.0684714 -0.061834 -0.0584253 -0.0559636 -0.0548847 -0.0553713 -0.0510526 -0.0442361 -0.0404089 -0.0383264 -0.0347072 -0.0317992 -0.0281797 -0.0209357 -0.0150483 -0.0108573 -0.00890429 -0.0118445 -0.0155255 -0.0162668 -0.0163628 -0.0169044 -0.0172904 -0.016622 -0.111691 -0.104633 -0.096503 -0.0910985 -0.0873915 -0.083405 -0.0811886 -0.0766864 -0.0685245 -0.0647888 -0.0636407 -0.0626366 -0.0627743 -0.0585674 -0.0513361 -0.0475988 -0.0448999 -0.0412087 -0.0409503 -0.0396378 -0.0333621 -0.029022 -0.0253778 -0.0209932 -0.0195528 -0.0200192 -0.0206654 -0.0215942 -0.0221322 -0.0225363 -0.0219628 -0.126749 -0.118905 -0.110433 -0.10437 -0.100532 -0.09633 -0.0931583 -0.0889543 -0.0812759 -0.0765653 -0.0752047 -0.0747388 -0.0742273 -0.0700105 -0.0631193 -0.0601035 -0.0571096 -0.054133 -0.0564339 -0.0557192 -0.0495664 -0.0459971 -0.0441633 -0.0417801 -0.0396977 -0.0343559 -0.0287742 -0.0279882 -0.0295871 -0.0311567 -0.0323103 -0.148774 -0.137595 -0.128322 -0.122015 -0.118207 -0.113695 -0.109252 -0.104402 -0.0968265 -0.0915805 -0.0894035 -0.0891349 -0.0884169 -0.0842522 -0.0773523 -0.0751622 -0.0740239 -0.071196 -0.0728306 -0.0723383 -0.0670708 -0.0635535 -0.0621311 -0.0613578 -0.0628005 -0.0598691 -0.0502974 -0.0407398 -0.036555 -0.0374275 -0.0378543 -0.168475 -0.157586 -0.148893 -0.14245 -0.137942 -0.133242 -0.128659 -0.122592 -0.114258 -0.10902 -0.106044 -0.104773 -0.104437 -0.101244 -0.0945319 -0.0920376 -0.0909818 -0.0888226 -0.0904364 -0.0893792 -0.0844623 -0.080955 -0.0797137 -0.0798397 -0.0824218 -0.0845565 -0.0812236 -0.0719725 -0.0595983 -0.048083 -0.0363374 -0.184377 -0.175105 -0.167206 -0.160267 -0.154146 -0.148641 -0.144595 -0.136756 -0.126409 -0.121401 -0.117349 -0.114461 -0.115726 -0.113372 -0.105209 -0.103132 -0.100966 -0.098413 -0.102453 -0.100811 -0.0955664 -0.0925639 -0.0908265 -0.0930558 -0.0973685 -0.101325 -0.106426 -0.110707 -0.0963745 -0.0642262 -0.0369044
        </DataArray>
      </PointData>
      <Points>
        <DataArray type="Float32" Name="network4" NumberOfComponents="3" format="ascii">
7.098 0.0 0.5
7.0116 0.0 0.5
6.9251 0.0 0.5
6.8386 0.0 0.5
6.7521 0.0 0.5
6.6655 0.0 0.5
6.5789 0.0 0.5
6.4923 0.0 0.5
6.4057 0.0 0.5
6.3191 0.0 0.5
6.2324 0.0 0.5
6.1457 0.0 0.5
6.0591 0.0 0.5
5.9724 0.0 0.5
5.8857 0.0 0.5
5.799 0.0 0.5
5.7123 0.0 0.5
5.6256 0.0 0.5
5.5389 0.0 0.5
5.4523 0.0 0.5
5.3656 0.0 0.5
5.2789 0.0 0.5
5.1923 0.0 0.5
5.1057 0.0 0.5
5.0191 0.0 0.5
4.9325 0.0 0.5
4.8459 0.0 0.5
4.7594 0.0 0.5
4.6729 0.0 0.5
4.5864 0.0 0.5
4.5 0.0 0.5
7.098 0.1294 0.483
7.0116 0.1294 0.483
6.9251 0.1294 0.483
6.8386 0.1294 0.483
6.7521 0.1294 0.483
6.6655 0.1294 0.483
6.5789 0.1294 0.483
6.4923 0.1294 0.483
6.4057 0.1294 0.483
6.3191 0.1294 0.483
6.2324 0.1294 0.483
6.1457 0.1294 0.483
6.0591 0.1294 0.483
5.9724 0.1294 0.483
5.8857 0.1294 0.483
5.799 0.1294 0.483
5.7123 0.1294 0.483
5.6256 0.1294 0.483
5.5389 0.1294 0.483
5.4523 0.1294 0.483
5.3656 0.1294 0.483
5.2789 0.1294 0.483
5.1923 0.1294 0.483
5.1057 0.1294 0.483
5.0191 0.1294 0.483
4.9325 0.1294 0.483
4.8459 0.1294 0.483
4.7594 0.1294 0.483
4.6729 0.1294 0.483
4.5864 0.1294 0.483
4.5 0.1294 0.483
7.098 0.25 0.433
7.0116 0.25 0.433
6.9251 0.25 0.433
6.8386 0.25 0.433
6.7521 0.25 0.433
6.6655 0.25 0.433
6.5789 0.25 0.433
6.4923 0.25 0.433
6.4057 0.25 0.433
6.3191 0.25 0.433
6.2324 0.25 0.433
6.1457 0.25 0.433
6.0591 0.25 0.433
5.9724 0.25 0.433
5.8857 0.25 0.433
5.799 0.25 0.433
5.7123 0.25 0.433
5.6256 0.25 0.433
5.5389 0.25 0.433
5.4523 0.25 0.433
5.3656 0.25 0.433
5.2789 0.25 0.433
5.1923 0.25 0.433
5.1057 0.25 0.433
5.0191 0.25 0.433
4.9325 0.25 0.433
4.8459 0.25 0.433
4.7594 0.25 0.433
4.6729 0.25 0.433
4.5864 0.25 0.433
4.5 0.25 0.433
7.098 0.3536 0.3536
7.0116 0.3536 0.3536
6.9251 0.3536 0.3536
6.8386 0.3536 0.3536
6.7521 0.3536 0.3536
6.6655 0.3536 0.3536
6.5789 0.3536 0.3536
6.4923 0.3536 0.3536
6.4057 0.3536 0.3536
6.3191 0.3536 0.3536
6.2324 0.3536 0.3536
6.1457 0.3536 0.3536
6.0591 0.3536 0.3536
5.9724 0.3536 0.3536
5.8857 0.3536 0.3536
5.799 0.3536 0.3536
5.7123 0.3536 0.3536
5.6256 0.3536 0.3536
5.5389 0.3536 0.3536
5.4523 0.3536 0.3536
5.3656 0.3536 0.3536
5.2789 0.3536 0.3536
5.1923 0.3536 0.3536
5.1057 0.3536 0.3536
5.0191 0.3536 0.3536
4.9325 0.3536 0.3536
4.8459 0.3536 0.3536
4.7594 0.3536 0.3536
4.6729 0.3536 0.3536
4.5864 0.3536 0.3536
4.5 0.3536 0.3536
7.098 0.433 0.25
7.0116 0.433 0.25
6.9251 0.433 0.25
6.8386 0.433 0.25
6.7521 0.433 0.25
6.6655 0.433 0.25
6.5789 0.433 0.25
6.4923 0.433 0.25
6.4057 0.433 0.25
6.3191 0.433 0.25
6.2324 0.433 0.25
6.1457 0.433 0.25
6.0591 0.433 0.25
5.9724 0.433 0.25
5.8857 0.433 0.25
5.799 0.433 0.25
5.7123 0.433 0.25
5.6256 0.433 0.25
5.5389 0.433 0.25
5.4523 0.433 0.25
5.3656 0.433 0.25
5.2789 0.433 0.25
5.1923 0.433 0.25
5.1057 0.433 0.25
5.0191 0.433 0.25
4.9325 0.433 0.25
4.8459 0.433 0.25
4.7594 0.433 0.25
4.6729 0.433 0.25
4.5864 0.433 0.25
4.5 0.433 0.25
7.098 0.483 0.1294
7.0116 0.483 0.1294
6.9251 0.483 0.1294
6.8386 0.483 0.1294
6.7521 0.483 0.1294
6.6655 0.483 0.1294
6.5789 0.483 0.1294
6.4923 0.483 0.1294
6.4057 0.483 0.1294
6.3191 0.483 0.1294
6.2324 0.483 0.1294
6.1457 0.483 0.1294
6.0591 0.483 0.1294
5.9724 0.483 0.1294
5.8857 0.483 0.1294
5.799 0.483 0.1294
5.7123 0.483 0.1294
5.6256 0.483 0.1294
5.5389 0.483 0.1294
5.4523 0.483 0.1294
5.3656 0.483 0.1294
5.2789 0.483 0.1294
5.1923 0.483 0.1294
5.1057 0.483 0.1294
5.0191 0.483 0.1294
4.9325 0.483 0.1294
4.8459 0.483 0.1294
4.7594 0.483 0.1294
4.6729 0.483 0.1294
4.5864 0.483 0.1294
4.5 0.483 0.1294
7.098 0.5 0.0
7.0116 0.5 0.0067
6.9251 0.5 0.0129
6.8386 0.5 0.0187
6.7521 0.5 0.024
6.6655 0.5 0.0289
6.5789 0.5 0.0332
6.4923 0.5 0.0372
6.4057 0.5 0.0406
6.3191 0.5 0.0436
6.2324 0.5 0.0462
6.1457 0.5 0.0483
6.0591 0.5 0.0499
5.9724 0.5 0.051
5.8857 0.5 0.0517
5.799 0.5 0.052
5.7123 0.5 0.0517
5.6256 0.5 0.051
5.5389 0.5 0.0499
5.4523 0.5 0.0483
5.3656 0.5 0.0462
5.2789 0.5 0.0436
5.1923 0.5 0.0406
5.1057 0.5 0.0372
5.0191 0.5 0.0332
4.9325 0.5 0.0289
4.8459 0.5 0.024
4.7594 0.5 0.0187
4.6729 0.5 0.0129
4.5864 0.5 0.0067
4.5 0.5 0.0
        </DataArray>
      </Points>
      <Cells>
        <DataArray type="Int32" Name="connectivity" format="ascii">
0 31 32 1
1 32 33 2
2 33 34 3
3 34 35 4
4 35 36 5
5 36 37 6
6 37 38 7
7 38 39 8
8 39 40 9
9 40 41 10
10 41 42 11
11 42 43 12
12 43 44 13
13 44 45 14
14 45 46 15
15 46 47 16
16 47 48 17
17 48 49 18
18 49 50 19
19 50 51 20
20 51 52 21
21 52 53 22
22 53 54 23
23 54 55 24
24 55 56 25
25 56 57 26
26 57 58 27
27 58 59 28
28 59 60 29
29 60 61 30
31 62 63 32
32 63 64 33
33 64 65 34
34 65 66 35
35 66 67 36
36 67 68 37
37 68 69 38
38 69 70 39
39 70 71 40
40 71 72 41
41 72 73 42
42 73 74 43
43 74 75 44
44 75 76 45
45 76 77 46
46 77 78 47
47 78 79 48
48 79 80 49
49 80 81 50
50 81 82 51
51 82 83 52
52 83 84 53
53 84 85 54
54 85 86 55
55 86 87 56
56 87 88 57
57 88 89 58
58 89 90 59
59 90 91 60
60 91 92 61
62 93 94 63
63 94 95 64
64 95 96 65
65 96 97 66
66 97 98 67
67 98 99 68
68 99 100 69
69 100 101 70
70 101 102 71
71 102 103 72
72 103 104 73
73 104 105 74
74 105 106 75
75 106 107 76
76 107 108 77
77 108 109 78
78 109 110 79
79 110 111 80
80 111 112 81
81 112 113 82
82 113 114 83
83 114 115 84
84 115 116 85
85 116 117 86
86 117 118 87
87 118 119 88
88 119 120 89
89 120 121 90
90 121 122 91
91 122 123 92
93 124 125 94
94 125 126 95
95 126 127 96
96 127 128 97
97 128 129 98
98 129 130 99
99 130 131 100
100 131 132 101
101 132 133 102
102 133 134 103
103 134 135 104
104 135 136 105
105 136 137 106
106 137 138 107
107 138 139 108
108 139 140 109
109 140 141 110
110 141 142 111
111 142 143 112
112 143 144 113
113 144 145 114
114 145 146 115
115 146 147 116
116 147 148 117
117 148 149 118
118 149 150 119
119 150 151 120
120 151 152 121
121 152 153 122
122 153 154 123
124 155 156 125
125 156 157 126
126 157 158 127
127 158 159 128
128 159 160 129
129 160 161 130
130 161 162 131
131 162 163 132
132 163 164 133
133 164 165 134
134 165 166 135
135 166 167 136
136 167 168 137
137 168 169 138
138 169 170 139
139 170 171 140
140 171 172 141
141 172 173 142
142 173 174 143
143 174 175 144
144 175 176 145
145 176 177 146
146 177 178 147
147 178 179 148
148 179 180 149
149 180 181 150
150 181 182 151
151 182 183 152
152 183 184 153
153 184 185 154
155 186 187 156
156 187 188 157
157 188 189 158
158 189 190 159
159 190 191 160
160 191 192 161
161 192 193 162
162 193 194 163
163 194 195 164
164 195 196 165
165 196 197 166
166 197 198 167
167 198 199 168
168 199 200 169
169 200 201 170
170 201 202 171
171 202 203 172
172 203 204 173
173 204 205 174
174 205 206 175
175 206 207 176
176 207 208 177
177 208 209 178
178 209 210 179
179 210 211 180
180 211 212 181
181 212 213 182
182 213 214 183
183 214 215 184
184 215 216 185
        </DataArray>
        <DataArray type="Int32" Name="offsets" format="ascii">
4 8 12 16 20 24 28 32 36 40 44 48 52 56 60 64 68 72 76 80 84 88 92 96 100 104 108 112 116 120 124 128 132 136 140 144 148 152 156 160 164 168 172 176 180 184 188 192 196 200 204 208 212 216 220 224 228 232 236 240 244 248 252 256 260 264 268 272 276 280 284 288 292 296 300 304 308 312 316 320 324 328 332 336 340 344 348 352 356 360 364 368 372 376 380 384 388 392 396 400 404 408 412 416 420 424 428 432 436 440 444 448 452 456 460 464 468 472 476 480 484 488 492 496 500 504 508 512 516 520 524 528 532 536 540 544 548 552 556 560 564 568 572 576 580 584 588 592 596 600 604 608 612 616 620 624 628 632 636 640 644 648 652 656 660 664 668 672 676 680 684 688 692 696 700 704 708 712 716 720
        </DataArray>
        <DataArray type="Int32" Name="types" format="ascii">
9 9 9 9 9 9 9 9 9 9 9 9 9 9 9 9 9 9 9 9 9 9 9 9 9 9 9 9 9 9 9 9 9 9 9 9 9 9 9 9 9 9 9 9 9 9 9 9 9 9 9 9 9 9 9 9 9 9 9 9 9 9 9 9 9 9 9 9 9 9 9 9 9 9 9 9 9 9 9 9 9 9 9 9 9 9 9 9 9 9 9 9 9 9 9 9 9 9 9 9 9 9 9 9 9 9 9 9 9 9 9 9 9 9 9 9 9 9 9 9 9 9 9 9 9 9 9 9 9 9 9 9 9 9 9 9 9 9 9 9 9 9 9 9 9 9 9 9 9 9 9 9 9 9 9 9 9 9 9 9 9 9 9 9 9 9 9 9 9 9 9 9 9 9 9 9 9 9 9 9
        </DataArray>
      </Cells>
    </Piece>
  </UnstructuredGrid>
</VTKFile>
